       N       E                     dE             d eps       ncg     rms          rms(c)
RMM:   1     0.414382835149E+04    0.41438E+04   -0.75864E+04 10368   0.759E+02
RMM:   2     0.147604198325E+04   -0.26678E+04   -0.31756E+04 10368   0.195E+02
RMM:   3     0.588369875470E+03   -0.88767E+03   -0.14698E+04 10368   0.158E+02
RMM:   4    -0.206629278206E+03   -0.79500E+03   -0.73508E+03 10368   0.138E+02
RMM:   5    -0.547237117742E+03   -0.34061E+03   -0.28143E+03 10368   0.926E+01
RMM:   6    -0.658417615431E+03   -0.11118E+03   -0.89256E+02 10368   0.656E+01
RMM:   7    -0.687591960611E+03   -0.29174E+02   -0.24979E+02 10368   0.375E+01
RMM:   8    -0.699505699448E+03   -0.11914E+02   -0.86082E+01 10368   0.287E+01
RMM:   9    -0.704726376840E+03   -0.52207E+01   -0.43175E+01 10368   0.150E+01
RMM:  10    -0.706767637987E+03   -0.20413E+01   -0.14656E+01 10368   0.128E+01
RMM:  11    -0.707898736432E+03   -0.11311E+01   -0.93969E+00 10368   0.588E+00
RMM:  12    -0.708260674099E+03   -0.36194E+00   -0.27452E+00 10368   0.520E+00
RMM:  13    -0.708471281210E+03   -0.21061E+00   -0.17876E+00 10368   0.230E+00
RMM:  14    -0.708544437231E+03   -0.73156E-01   -0.59435E-01 10368   0.213E+00
RMM:  15    -0.708624095248E+03   -0.79658E-01   -0.74279E-01 27401   0.961E-01
RMM:  16    -0.708629206463E+03   -0.51112E-02   -0.36765E-02 26423   0.187E-01
RMM:  17    -0.708629721575E+03   -0.51511E-03   -0.44590E-03 24738   0.684E-02
RMM:  18    -0.708629837150E+03   -0.11558E-03   -0.11046E-03 20631   0.313E-02
RMM:  19    -0.708629859774E+03   -0.22624E-04   -0.21390E-04 16576   0.151E-02
RMM:  20    -0.708629865694E+03   -0.59195E-05   -0.56888E-05 14868   0.917E-03    0.616E+01
RMM:  21    -0.722553312494E+03   -0.13923E+02   -0.21814E+02 35362   0.331E+01    0.966E+01
RMM:  22    -0.702343079890E+03    0.20210E+02   -0.39257E+01 35352   0.107E+01    0.635E+01
RMM:  23    -0.670117000212E+03    0.32226E+02   -0.48986E+01 35344   0.964E+00    0.234E+01
RMM:  24    -0.664432535471E+03    0.56845E+01   -0.90017E+00 35336   0.495E+00    0.170E+01
RMM:  25    -0.661906678362E+03    0.25259E+01   -0.61754E+00 35332   0.425E+00    0.112E+01
RMM:  26    -0.662081796264E+03   -0.17512E+00   -0.68581E-01 35332   0.137E+00    0.759E+00
RMM:  27    -0.662060551296E+03    0.21245E-01   -0.16031E-01 35323   0.692E-01    0.492E+00
RMM:  28    -0.661905686258E+03    0.15487E+00   -0.18783E-01 35315   0.701E-01    0.166E+00
RMM:  29    -0.661889394621E+03    0.16292E-01   -0.37318E-02 34261   0.295E-01    0.876E-01
RMM:  30    -0.661887896157E+03    0.14985E-02   -0.21309E-03 22518   0.719E-02    0.609E-01
RMM:  31    -0.661886097369E+03    0.17988E-02   -0.36079E-03 23432   0.884E-02    0.304E-01
RMM:  32    -0.661886060364E+03    0.37005E-04   -0.52456E-04 23756   0.398E-02    0.195E-01
RMM:  33    -0.661886021419E+03    0.38945E-04   -0.33381E-04 22137   0.311E-02    0.897E-02
RMM:  34    -0.661886027835E+03   -0.64160E-05   -0.12866E-04 21219   0.204E-02    0.460E-02
RMM:  35    -0.661886029794E+03   -0.19593E-05   -0.20296E-05 13884   0.120E-02
   1 F= -.66452014E+03 E0= -.66451953E+03  d E =-.664520E+03  mag=     0.0000
       N       E                     dE             d eps       ncg     rms          rms(c)
RMM:   1    -0.661887552659E+03   -0.15248E-02   -0.15543E+00 20846   0.281E+00    0.715E-01
RMM:   2    -0.661897936536E+03   -0.10384E-01   -0.97860E-02 23355   0.906E-01    0.430E-01
RMM:   3    -0.661898332415E+03   -0.39588E-03   -0.21528E-02 22401   0.339E-01    0.292E-01
RMM:   4    -0.661898258298E+03    0.74117E-04   -0.30487E-03 23922   0.122E-01    0.200E-01
RMM:   5    -0.661898059681E+03    0.19862E-03   -0.15749E-03 21019   0.836E-02    0.481E-02
RMM:   6    -0.661898043059E+03    0.16622E-04   -0.33790E-04 23850   0.364E-02    0.383E-02
RMM:   7    -0.661898044570E+03   -0.15111E-05   -0.56844E-05 16729   0.138E-02
   2 F= -.66453247E+03 E0= -.66453180E+03  d E =-.123344E-01  mag=    -0.0000
       N       E                     dE             d eps       ncg     rms          rms(c)
RMM:   1    -0.661898038321E+03    0.47378E-05   -0.39094E-03 20774   0.140E-01    0.358E-02
RMM:   2    -0.661898069223E+03   -0.30902E-04   -0.27267E-04 22442   0.469E-02    0.243E-02
RMM:   3    -0.661898069998E+03   -0.77465E-06   -0.54381E-05 16301   0.177E-02    0.167E-02
RMM:   4    -0.661898070552E+03   -0.55375E-06   -0.86183E-06 13638   0.758E-03    0.126E-02
RMM:   5    -0.661898072537E+03   -0.19855E-05   -0.50273E-06 13482   0.486E-03    0.320E-03
RMM:   6    -0.661898072444E+03    0.93594E-07   -0.97279E-07 12599   0.279E-03
   3 F= -.66453252E+03 E0= -.66453185E+03  d E =-.123785E-01  mag=    -0.0000
       N       E                     dE             d eps       ncg     rms          rms(c)
RMM:   1    -0.661894270254E+03    0.38023E-02   -0.10659E+00 20800   0.226E+00    0.520E-01
RMM:   2    -0.661900650498E+03   -0.63802E-02   -0.62560E-02 23501   0.691E-01    0.313E-01
RMM:   3    -0.661900900157E+03   -0.24966E-03   -0.11780E-02 22356   0.254E-01    0.249E-01
RMM:   4    -0.661900756098E+03    0.14406E-03   -0.16490E-03 23530   0.933E-02    0.178E-01
RMM:   5    -0.661900687268E+03    0.68830E-04   -0.15875E-03 21369   0.678E-02    0.522E-02
RMM:   6    -0.661900647312E+03    0.39956E-04   -0.18401E-04 21199   0.283E-02    0.421E-02
RMM:   7    -0.661900658984E+03   -0.11672E-04   -0.47236E-05 16513   0.127E-02    0.241E-02
RMM:   8    -0.661900663651E+03   -0.46678E-05   -0.12872E-05 13876   0.780E-03
   4 F= -.66453544E+03 E0= -.66453481E+03  d E =-.292133E-02  mag=     0.0000
       N       E                     dE             d eps       ncg     rms          rms(c)
RMM:   1    -0.661901014021E+03   -0.35504E-03   -0.11309E-01 20799   0.735E-01    0.170E-01
RMM:   2    -0.661901684184E+03   -0.67016E-03   -0.66792E-03 23604   0.227E-01    0.107E-01
RMM:   3    -0.661901696840E+03   -0.12656E-04   -0.12366E-03 21748   0.822E-02    0.796E-02
RMM:   4    -0.661901686962E+03    0.98776E-05   -0.17213E-04 19543   0.304E-02    0.576E-02
RMM:   5    -0.661901691671E+03   -0.47087E-05   -0.17477E-04 20167   0.232E-02    0.159E-02
RMM:   6    -0.661901686049E+03    0.56218E-05   -0.18373E-05 14046   0.963E-03
   5 F= -.66453636E+03 E0= -.66453572E+03  d E =-.383750E-02  mag=    -0.0000
       N       E                     dE             d eps       ncg     rms          rms(c)
RMM:   1    -0.661900407339E+03    0.12843E-02   -0.63243E-01 20776   0.176E+00    0.337E-01
RMM:   2    -0.661903788671E+03   -0.33813E-02   -0.35216E-02 23265   0.491E-01    0.225E-01
RMM:   3    -0.661903840957E+03   -0.52286E-04   -0.55625E-03 22562   0.184E-01    0.164E-01
RMM:   4    -0.661903755246E+03    0.85711E-04   -0.76429E-04 23159   0.660E-02    0.122E-01
RMM:   5    -0.661903715461E+03    0.39785E-04   -0.64721E-04 21241   0.444E-02    0.424E-02
RMM:   6    -0.661903722120E+03   -0.66593E-05   -0.90041E-05 20019   0.201E-02
   6 F= -.66453858E+03 E0= -.66453798E+03  d E =-.222025E-02  mag=    -0.0000
       N       E                     dE             d eps       ncg     rms          rms(c)
RMM:   1    -0.661903870438E+03   -0.15498E-03   -0.40563E-02 20768   0.444E-01    0.835E-02
RMM:   2    -0.661904071810E+03   -0.20137E-03   -0.22449E-03 23139   0.124E-01    0.574E-02
RMM:   3    -0.661904069993E+03    0.18172E-05   -0.36344E-04 21290   0.474E-02    0.371E-02
RMM:   4    -0.661904065552E+03    0.44407E-05   -0.47493E-05 16413   0.180E-02    0.262E-02
RMM:   5    -0.661904066811E+03   -0.12595E-05   -0.50215E-05 16583   0.129E-02    0.974E-03
RMM:   6    -0.661904067911E+03   -0.11000E-05   -0.56743E-06 12843   0.643E-03
   7 F= -.66453888E+03 E0= -.66453827E+03  d E =-.252119E-02  mag=    -0.0000
       N       E                     dE             d eps       ncg     rms          rms(c)
RMM:   1    -0.661905157606E+03   -0.10908E-02   -0.12468E-01 20736   0.784E-01    0.849E-02
RMM:   2    -0.661905648475E+03   -0.49087E-03   -0.61069E-03 21781   0.179E-01    0.704E-02
RMM:   3    -0.661905713030E+03   -0.64555E-04   -0.10431E-03 23910   0.717E-02    0.614E-02
RMM:   4    -0.661905707619E+03    0.54111E-05   -0.97319E-05 19415   0.234E-02    0.501E-02
RMM:   5    -0.661905715268E+03   -0.76494E-05   -0.89405E-05 20176   0.179E-02    0.225E-02
RMM:   6    -0.661905722693E+03   -0.74244E-05   -0.15876E-05 13679   0.991E-03
   8 F= -.66454058E+03 E0= -.66453996E+03  d E =-.170204E-02  mag=    -0.0000
       N       E                     dE             d eps       ncg     rms          rms(c)
RMM:   1    -0.661905710116E+03    0.51522E-05   -0.10213E-01 20736   0.710E-01    0.780E-02
RMM:   2    -0.661906108836E+03   -0.39872E-03   -0.49804E-03 21706   0.162E-01    0.652E-02
RMM:   3    -0.661906163632E+03   -0.54796E-04   -0.84399E-04 23656   0.647E-02    0.575E-02
RMM:   4    -0.661906162562E+03    0.10703E-05   -0.89691E-05 19265   0.222E-02    0.472E-02
RMM:   5    -0.661906174742E+03   -0.12180E-04   -0.70089E-05 19834   0.162E-02    0.210E-02
RMM:   6    -0.661906182541E+03   -0.77985E-05   -0.12830E-05 13559   0.905E-03
   9 F= -.66454108E+03 E0= -.66454045E+03  d E =-.220376E-02  mag=    -0.0000
       N       E                     dE             d eps       ncg     rms          rms(c)
RMM:   1    -0.661906751940E+03   -0.57720E-03   -0.11591E-01 20737   0.689E-01    0.842E-02
RMM:   2    -0.661907100239E+03   -0.34830E-03   -0.50280E-03 21211   0.156E-01    0.641E-02
RMM:   3    -0.661907166806E+03   -0.66567E-04   -0.84205E-04 23162   0.607E-02    0.575E-02
RMM:   4    -0.661907170601E+03   -0.37955E-05   -0.84629E-05 19359   0.229E-02    0.404E-02
RMM:   5    -0.661907193932E+03   -0.23331E-04   -0.65976E-05 19745   0.157E-02    0.167E-02
RMM:   6    -0.661907200191E+03   -0.62592E-05   -0.10556E-05 13624   0.799E-03
  10 F= -.66454214E+03 E0= -.66454152E+03  d E =-.106267E-02  mag=     0.0000
       N       E                     dE             d eps       ncg     rms          rms(c)
RMM:   1    -0.661907178377E+03    0.15555E-04   -0.54283E-02 20736   0.471E-01    0.578E-02
RMM:   2    -0.661907332875E+03   -0.15450E-03   -0.23492E-03 21133   0.107E-01    0.451E-02
RMM:   3    -0.661907366031E+03   -0.33156E-04   -0.40180E-04 22582   0.429E-02    0.406E-02
RMM:   4    -0.661907371392E+03   -0.53607E-05   -0.43272E-05 15730   0.167E-02    0.289E-02
RMM:   5    -0.661907387788E+03   -0.16396E-04   -0.28771E-05 15111   0.108E-02    0.119E-02
RMM:   6    -0.661907392732E+03   -0.49441E-05   -0.50221E-06 13399   0.606E-03
  11 F= -.66454237E+03 E0= -.66454174E+03  d E =-.128537E-02  mag=     0.0000
       N       E                     dE             d eps       ncg     rms          rms(c)
RMM:   1    -0.661907618461E+03   -0.23067E-03   -0.12523E-01 20738   0.610E-01    0.961E-02
RMM:   2    -0.661907923008E+03   -0.30455E-03   -0.50813E-03 21393   0.142E-01    0.720E-02
RMM:   3    -0.661907979648E+03   -0.56640E-04   -0.79276E-04 22803   0.574E-02    0.634E-02
RMM:   4    -0.661907982993E+03   -0.33449E-05   -0.84070E-05 17300   0.216E-02    0.438E-02
RMM:   5    -0.661908015341E+03   -0.32349E-04   -0.81090E-05 17210   0.145E-02    0.170E-02
RMM:   6    -0.661908021536E+03   -0.61948E-05   -0.92500E-06 13740   0.699E-03
  12 F= -.66454300E+03 E0= -.66454238E+03  d E =-.636387E-03  mag=    -0.0000
       N       E                     dE             d eps       ncg     rms          rms(c)
RMM:   1    -0.661908026475E+03   -0.11134E-04   -0.10487E-03 20428   0.563E-02    0.107E-02
RMM:   2    -0.661908026586E+03   -0.11114E-06   -0.43879E-05 14804   0.139E-02    0.927E-03
RMM:   3    -0.661908027366E+03   -0.77928E-06   -0.63543E-06 13434   0.670E-03    0.829E-03
RMM:   4    -0.661908029736E+03   -0.23700E-05   -0.13353E-06 12581   0.308E-03    0.522E-03
RMM:   5    -0.661908031474E+03   -0.17385E-05   -0.52988E-07 10323   0.202E-03    0.190E-03
RMM:   6    -0.661908031613E+03   -0.13884E-06   -0.11792E-07  7012   0.143E-03
  13 F= -.66454301E+03 E0= -.66454239E+03  d E =-.647385E-03  mag=     0.0000
       N       E                     dE             d eps       ncg     rms          rms(c)
RMM:   1    -0.661908439988E+03   -0.40851E-03   -0.55757E-02 20766   0.392E-01    0.642E-02
RMM:   2    -0.661908546352E+03   -0.10636E-03   -0.21341E-03 21244   0.908E-02    0.450E-02
RMM:   3    -0.661908579619E+03   -0.33267E-04   -0.28745E-04 21994   0.346E-02    0.352E-02
RMM:   4    -0.661908592876E+03   -0.13257E-04   -0.39941E-05 14542   0.148E-02    0.216E-02
RMM:   5    -0.661908611214E+03   -0.18338E-04   -0.18196E-05 13872   0.863E-03    0.862E-03
RMM:   6    -0.661908614351E+03   -0.31371E-05   -0.35399E-06 13248   0.530E-03
  14 F= -.66454360E+03 E0= -.66454297E+03  d E =-.584689E-03  mag=     0.0000
       N       E                     dE             d eps       ncg     rms          rms(c)
RMM:   1    -0.661908532758E+03    0.78456E-04   -0.14740E-01 20764   0.637E-01    0.105E-01
RMM:   2    -0.661908855852E+03   -0.32309E-03   -0.56395E-03 21238   0.148E-01    0.740E-02
RMM:   3    -0.661908934791E+03   -0.78939E-04   -0.76541E-04 22762   0.572E-02    0.584E-02
RMM:   4    -0.661908958284E+03   -0.23493E-04   -0.11197E-04 17588   0.235E-02    0.355E-02
RMM:   5    -0.661908993071E+03   -0.34787E-04   -0.50919E-05 16334   0.133E-02    0.139E-02
RMM:   6    -0.661908998358E+03   -0.52868E-05   -0.83630E-06 13695   0.699E-03
  15 F= -.66454399E+03 E0= -.66454335E+03  d E =-.971565E-03  mag=    -0.0000
       N       E                     dE             d eps       ncg     rms          rms(c)
RMM:   1    -0.661909448371E+03   -0.45530E-03   -0.51608E-02 20828   0.322E-01    0.626E-02
RMM:   2    -0.661909527423E+03   -0.79053E-04   -0.18864E-03 21042   0.769E-02    0.433E-02
RMM:   3    -0.661909565885E+03   -0.38462E-04   -0.21071E-04 18628   0.265E-02    0.230E-02
RMM:   4    -0.661909591048E+03   -0.25163E-04   -0.31807E-05 14287   0.123E-02    0.113E-02
RMM:   5    -0.661909596633E+03   -0.55856E-05   -0.84548E-06 13669   0.674E-03    0.519E-03
RMM:   6    -0.661909597890E+03   -0.12566E-05   -0.21627E-06 12883   0.366E-03
  16 F= -.66454457E+03 E0= -.66454394E+03  d E =-.587948E-03  mag=    -0.0000
       N       E                     dE             d eps       ncg     rms          rms(c)
RMM:   1    -0.661909412835E+03    0.18380E-03   -0.46482E-01 20859   0.967E-01    0.188E-01
RMM:   2    -0.661910357265E+03   -0.94443E-03   -0.17043E-02 21193   0.231E-01    0.130E-01
RMM:   3    -0.661910601854E+03   -0.24459E-03   -0.19390E-03 23135   0.824E-02    0.795E-02
RMM:   4    -0.661910676340E+03   -0.74486E-04   -0.29948E-04 20278   0.353E-02    0.428E-02
RMM:   5    -0.661910725311E+03   -0.48971E-04   -0.91133E-05 17038   0.183E-02    0.156E-02
RMM:   6    -0.661910732053E+03   -0.67416E-05   -0.18644E-05 14161   0.894E-03
  17 F= -.66454567E+03 E0= -.66454504E+03  d E =-.168560E-02  mag=    -0.0000
       N       E                     dE             d eps       ncg     rms          rms(c)
RMM:   1    -0.661904900554E+03    0.58248E-02   -0.18592E+00 20859   0.194E+00    0.374E-01
RMM:   2    -0.661908909321E+03   -0.40088E-02   -0.68025E-02 21172   0.461E-01    0.262E-01
RMM:   3    -0.661909728054E+03   -0.81873E-03   -0.80132E-03 23513   0.167E-01    0.168E-01
RMM:   4    -0.661909965755E+03   -0.23770E-03   -0.11839E-03 21379   0.710E-02    0.879E-02
RMM:   5    -0.661910110409E+03   -0.14465E-03   -0.38247E-04 21524   0.366E-02    0.325E-02
RMM:   6    -0.661910126399E+03   -0.15990E-04   -0.82775E-05 16170   0.165E-02    0.183E-02
RMM:   7    -0.661910144539E+03   -0.18140E-04   -0.20813E-05 13884   0.926E-03    0.970E-03
RMM:   8    -0.661910150047E+03   -0.55074E-05   -0.60649E-06 13610   0.599E-03
  18 F= -.66454502E+03 E0= -.66454439E+03  d E =-.103357E-02  mag=     0.0000
       N       E                     dE             d eps       ncg     rms          rms(c)
RMM:   1    -0.661908478146E+03    0.16664E-02   -0.87517E-01 20857   0.133E+00    0.259E-01
RMM:   2    -0.661910341990E+03   -0.18638E-02   -0.32074E-02 21172   0.315E-01    0.177E-01
RMM:   3    -0.661910728825E+03   -0.38684E-03   -0.35074E-03 23152   0.106E-01    0.942E-02
RMM:   4    -0.661910919639E+03   -0.19081E-03   -0.48165E-04 21227   0.409E-02    0.285E-02
RMM:   5    -0.661910952321E+03   -0.32682E-04   -0.11467E-04 16869   0.207E-02    0.194E-02
RMM:   6    -0.661910957534E+03   -0.52133E-05   -0.24862E-05 14274   0.111E-02
  19 F= -.66454588E+03 E0= -.66454525E+03  d E =-.189162E-02  mag=     0.0000
       N       E                     dE             d eps       ncg     rms          rms(c)
RMM:   1    -0.661911316898E+03   -0.36458E-03   -0.33833E-02 20736   0.236E-01    0.513E-02
RMM:   2    -0.661911360617E+03   -0.43719E-04   -0.12217E-03 20570   0.568E-02    0.353E-02
RMM:   3    -0.661911389619E+03   -0.29002E-04   -0.13876E-04 15378   0.208E-02    0.200E-02
RMM:   4    -0.661911404439E+03   -0.14821E-04   -0.18668E-05 13708   0.994E-03    0.973E-03
RMM:   5    -0.661911413376E+03   -0.89363E-05   -0.57646E-06 13027   0.462E-03    0.355E-03
RMM:   6    -0.661911414220E+03   -0.84397E-06   -0.12815E-06 10503   0.287E-03
  20 F= -.66454632E+03 E0= -.66454570E+03  d E =-.445805E-03  mag=     0.0000
       N       E                     dE             d eps       ncg     rms          rms(c)
RMM:   1    -0.661911654363E+03   -0.24099E-03   -0.30524E-01 20885   0.711E-01    0.153E-01
RMM:   2    -0.661912234910E+03   -0.58055E-03   -0.11114E-02 21104   0.171E-01    0.106E-01
RMM:   3    -0.661912408933E+03   -0.17402E-03   -0.12654E-03 21791   0.579E-02    0.508E-02
RMM:   4    -0.661912497264E+03   -0.88332E-04   -0.15300E-04 16325   0.219E-02    0.159E-02
RMM:   5    -0.661912508108E+03   -0.10843E-04   -0.36750E-05 14394   0.116E-02    0.111E-02
RMM:   6    -0.661912511024E+03   -0.29164E-05   -0.96172E-06 13815   0.653E-03
  21 F= -.66454739E+03 E0= -.66454677E+03  d E =-.151678E-02  mag=    -0.0000
       N       E                     dE             d eps       ncg     rms          rms(c)
RMM:   1    -0.661910055490E+03    0.24526E-02   -0.12248E+00 20885   0.143E+00    0.305E-01
RMM:   2    -0.661912525882E+03   -0.24704E-02   -0.44461E-02 21122   0.344E-01    0.214E-01
RMM:   3    -0.661913140810E+03   -0.61493E-03   -0.51486E-03 23052   0.120E-01    0.117E-01
RMM:   4    -0.661913353250E+03   -0.21244E-03   -0.69279E-04 21101   0.506E-02    0.653E-02
RMM:   5    -0.661913421618E+03   -0.68368E-04   -0.19844E-04 17404   0.260E-02    0.244E-02
RMM:   6    -0.661913436553E+03   -0.14935E-04   -0.47554E-05 14749   0.117E-02    0.140E-02
RMM:   7    -0.661913445795E+03   -0.92426E-05   -0.10557E-05 13780   0.617E-03
  22 F= -.66454828E+03 E0= -.66454766E+03  d E =-.240301E-02  mag=     0.0000
       N       E                     dE             d eps       ncg     rms          rms(c)
RMM:   1    -0.661913813992E+03   -0.37744E-03   -0.43550E-02 20809   0.268E-01    0.580E-02
RMM:   2    -0.661913877714E+03   -0.63722E-04   -0.15978E-03 20592   0.650E-02    0.396E-02
RMM:   3    -0.661913910391E+03   -0.32678E-04   -0.17185E-04 16251   0.226E-02    0.210E-02
RMM:   4    -0.661913935122E+03   -0.24730E-04   -0.27290E-05 14186   0.105E-02    0.823E-03
RMM:   5    -0.661913939514E+03   -0.43924E-05   -0.70077E-06 13751   0.529E-03    0.499E-03
RMM:   6    -0.661913940533E+03   -0.10191E-05   -0.17184E-06 11515   0.325E-03
  23 F= -.66454877E+03 E0= -.66454815E+03  d E =-.489693E-03  mag=     0.0000
       N       E                     dE             d eps       ncg     rms          rms(c)
RMM:   1    -0.661913976324E+03   -0.36810E-04   -0.39098E-01 20872   0.801E-01    0.174E-01
RMM:   2    -0.661914753729E+03   -0.77740E-03   -0.14371E-02 21148   0.193E-01    0.119E-01
RMM:   3    -0.661914961927E+03   -0.20820E-03   -0.14862E-03 21980   0.641E-02    0.636E-02
RMM:   4    -0.661915066325E+03   -0.10440E-03   -0.23461E-04 17466   0.283E-02    0.317E-02
RMM:   5    -0.661915087888E+03   -0.21564E-04   -0.58481E-05 14823   0.152E-02    0.130E-02
RMM:   6    -0.661915092611E+03   -0.47224E-05   -0.13201E-05 14031   0.715E-03
  24 F= -.66454991E+03 E0= -.66454929E+03  d E =-.162753E-02  mag=     0.0000
       N       E                     dE             d eps       ncg     rms          rms(c)
RMM:   1    -0.661911765063E+03    0.33228E-02   -0.15600E+00 20879   0.160E+00    0.347E-01
RMM:   2    -0.661915105199E+03   -0.33401E-02   -0.57515E-02 21139   0.386E-01    0.240E-01
RMM:   3    -0.661915818905E+03   -0.71371E-03   -0.61498E-03 22942   0.134E-01    0.144E-01
RMM:   4    -0.661916079899E+03   -0.26099E-03   -0.98261E-04 21102   0.597E-02    0.783E-02
RMM:   5    -0.661916194156E+03   -0.11426E-03   -0.26332E-04 19852   0.301E-02    0.259E-02
RMM:   6    -0.661916210669E+03   -0.16513E-04   -0.59968E-05 14891   0.131E-02    0.149E-02
RMM:   7    -0.661916222468E+03   -0.11798E-04   -0.13265E-05 13834   0.703E-03    0.845E-03
RMM:   8    -0.661916226528E+03   -0.40602E-05   -0.38538E-06 13577   0.428E-03
  25 F= -.66455102E+03 E0= -.66455040E+03  d E =-.273711E-02  mag=    -0.0000
       N       E                     dE             d eps       ncg     rms          rms(c)
RMM:   1    -0.661915928151E+03    0.29432E-03   -0.13328E-01 20879   0.466E-01    0.102E-01
RMM:   2    -0.661916164678E+03   -0.23653E-03   -0.48919E-03 20986   0.113E-01    0.697E-02
RMM:   3    -0.661916245639E+03   -0.80960E-04   -0.51896E-04 20566   0.377E-02    0.357E-02
RMM:   4    -0.661916293346E+03   -0.47708E-04   -0.74656E-05 14834   0.170E-02    0.178E-02
RMM:   5    -0.661916305423E+03   -0.12076E-04   -0.19308E-05 14124   0.933E-03    0.705E-03
RMM:   6    -0.661916307574E+03   -0.21508E-05   -0.46179E-06 13633   0.449E-03
  26 F= -.66455109E+03 E0= -.66455047E+03  d E =-.280884E-02  mag=     0.0000
       N       E                     dE             d eps       ncg     rms          rms(c)
RMM:   1    -0.661916980569E+03   -0.67515E-03   -0.43242E-02 20736   0.321E-01    0.565E-02
RMM:   2    -0.661917044793E+03   -0.64224E-04   -0.15726E-03 20968   0.743E-02    0.407E-02
RMM:   3    -0.661917071886E+03   -0.27093E-04   -0.20226E-04 19103   0.287E-02    0.304E-02
RMM:   4    -0.661917086924E+03   -0.15039E-04   -0.31368E-05 14294   0.126E-02    0.156E-02
RMM:   5    -0.661917101666E+03   -0.14742E-04   -0.12110E-05 13738   0.715E-03    0.550E-03
RMM:   6    -0.661917102896E+03   -0.12296E-05   -0.20791E-06 13196   0.401E-03
  27 F= -.66455188E+03 E0= -.66455126E+03  d E =-.792070E-03  mag=     0.0000
       N       E                     dE             d eps       ncg     rms          rms(c)
RMM:   1    -0.661917155443E+03   -0.53777E-04   -0.30413E-01 20749   0.849E-01    0.150E-01
RMM:   2    -0.661917765935E+03   -0.61049E-03   -0.11100E-02 21133   0.195E-01    0.107E-01
RMM:   3    -0.661917908626E+03   -0.14269E-03   -0.13304E-03 23069   0.720E-02    0.764E-02
RMM:   4    -0.661917954323E+03   -0.45697E-04   -0.22887E-04 20374   0.308E-02    0.401E-02
RMM:   5    -0.661918003378E+03   -0.49055E-04   -0.78276E-05 17887   0.166E-02    0.147E-02
RMM:   6    -0.661918007469E+03   -0.40909E-05   -0.12958E-05 13945   0.808E-03
  28 F= -.66455277E+03 E0= -.66455214E+03  d E =-.168551E-02  mag=     0.0000
       N       E                     dE             d eps       ncg     rms          rms(c)
RMM:   1    -0.661918255245E+03   -0.25187E-03   -0.27277E-02 20736   0.255E-01    0.444E-02
RMM:   2    -0.661918297983E+03   -0.42738E-04   -0.10417E-03 20757   0.589E-02    0.329E-02
RMM:   3    -0.661918313199E+03   -0.15216E-04   -0.14367E-04 17268   0.232E-02    0.253E-02
RMM:   4    -0.661918319246E+03   -0.60477E-05   -0.19488E-05 14106   0.107E-02    0.179E-02
RMM:   5    -0.661918330839E+03   -0.11593E-04   -0.12916E-05 13784   0.636E-03    0.724E-03
RMM:   6    -0.661918332821E+03   -0.19818E-05   -0.17165E-06 13022   0.357E-03
  29 F= -.66455310E+03 E0= -.66455246E+03  d E =-.320460E-03  mag=     0.0000
       N       E                     dE             d eps       ncg     rms          rms(c)
RMM:   1    -0.661918358992E+03   -0.28153E-04   -0.10370E-02 20736   0.157E-01    0.273E-02
RMM:   2    -0.661918369475E+03   -0.10483E-04   -0.39740E-04 20258   0.363E-02    0.207E-02
RMM:   3    -0.661918376418E+03   -0.69430E-05   -0.50562E-05 14752   0.143E-02    0.164E-02
RMM:   4    -0.661918381399E+03   -0.49808E-05   -0.95927E-06 13676   0.787E-03    0.116E-02
RMM:   5    -0.661918387725E+03   -0.63266E-05   -0.53639E-06 13370   0.430E-03    0.426E-03
RMM:   6    -0.661918388424E+03   -0.69890E-06   -0.85035E-07 11036   0.253E-03
  30 F= -.66455315E+03 E0= -.66455252E+03  d E =-.372634E-03  mag=     0.0000
       N       E                     dE             d eps       ncg     rms          rms(c)
RMM:   1    -0.661918556112E+03   -0.16839E-03   -0.18214E-02 20736   0.241E-01    0.339E-02
RMM:   2    -0.661918583051E+03   -0.26938E-04   -0.68889E-04 20925   0.550E-02    0.249E-02
RMM:   3    -0.661918595947E+03   -0.12896E-04   -0.93569E-05 17596   0.204E-02    0.181E-02
RMM:   4    -0.661918603637E+03   -0.76903E-05   -0.15405E-05 13946   0.101E-02    0.121E-02
RMM:   5    -0.661918610654E+03   -0.70174E-05   -0.76471E-06 13468   0.603E-03    0.479E-03
RMM:   6    -0.661918611164E+03   -0.50945E-06   -0.14092E-06 12870   0.359E-03
  31 F= -.66455337E+03 E0= -.66455275E+03  d E =-.226635E-03  mag=     0.0000
       N       E                     dE             d eps       ncg     rms          rms(c)
RMM:   1    -0.661918631988E+03   -0.21333E-04   -0.11285E-02 20736   0.190E-01    0.267E-02
RMM:   2    -0.661918646003E+03   -0.14015E-04   -0.42748E-04 20796   0.434E-02    0.198E-02
RMM:   3    -0.661918655210E+03   -0.92068E-05   -0.58498E-05 15751   0.166E-02    0.148E-02
RMM:   4    -0.661918660917E+03   -0.57069E-05   -0.99904E-06 13675   0.858E-03    0.983E-03
RMM:   5    -0.661918666231E+03   -0.53143E-05   -0.49145E-06 13209   0.486E-03    0.391E-03
RMM:   6    -0.661918666731E+03   -0.50058E-06   -0.93260E-07 11987   0.294E-03
  32 F= -.66455343E+03 E0= -.66455281E+03  d E =-.285337E-03  mag=    -0.0000
       N       E                     dE             d eps       ncg     rms          rms(c)
RMM:   1    -0.661918734752E+03   -0.68522E-04   -0.39901E-03 20736   0.116E-01    0.150E-02
RMM:   2    -0.661918737388E+03   -0.26354E-05   -0.15383E-04 19071   0.265E-02    0.111E-02
RMM:   3    -0.661918741340E+03   -0.39520E-05   -0.21963E-05 14089   0.105E-02    0.924E-03
RMM:   4    -0.661918744353E+03   -0.30137E-05   -0.46596E-06 13112   0.646E-03    0.658E-03
RMM:   5    -0.661918747736E+03   -0.33829E-05   -0.25610E-06 12900   0.345E-03    0.229E-03
RMM:   6    -0.661918747918E+03   -0.18145E-06   -0.46773E-07  9712   0.218E-03
  33 F= -.66455352E+03 E0= -.66455290E+03  d E =-.877917E-04  mag=    -0.0000
       N       E                     dE             d eps       ncg     rms          rms(c)
RMM:   1    -0.661918756404E+03   -0.86674E-05   -0.17267E-02 20736   0.240E-01    0.313E-02
RMM:   2    -0.661918782275E+03   -0.25871E-04   -0.66888E-04 20998   0.549E-02    0.230E-02
RMM:   3    -0.661918795293E+03   -0.13019E-04   -0.10086E-04 18322   0.210E-02    0.181E-02
RMM:   4    -0.661918802377E+03   -0.70835E-05   -0.14329E-05 13957   0.991E-03    0.132E-02
RMM:   5    -0.661918811267E+03   -0.88902E-05   -0.81827E-06 13575   0.584E-03    0.467E-03
RMM:   6    -0.661918812324E+03   -0.10568E-05   -0.15007E-06 12803   0.350E-03
  34 F= -.66455360E+03 E0= -.66455297E+03  d E =-.165673E-03  mag=     0.0000
       N       E                     dE             d eps       ncg     rms          rms(c)
RMM:   1    -0.661918856744E+03   -0.45477E-04   -0.21490E-03 20736   0.798E-02    0.112E-02
RMM:   2    -0.661918857177E+03   -0.43282E-06   -0.86198E-05 16458   0.188E-02    0.834E-03
RMM:   3    -0.661918859802E+03   -0.26253E-05   -0.11800E-05 13448   0.737E-03    0.659E-03
RMM:   4    -0.661918861683E+03   -0.18808E-05   -0.25353E-06 12963   0.444E-03    0.474E-03
RMM:   5    -0.661918863612E+03   -0.19290E-05   -0.12677E-06 11691   0.255E-03    0.195E-03
RMM:   6    -0.661918863858E+03   -0.24563E-06   -0.25076E-07  8145   0.171E-03
  35 F= -.66455365E+03 E0= -.66455303E+03  d E =-.545697E-04  mag=    -0.0000
       N       E                     dE             d eps       ncg     rms          rms(c)
RMM:   1    -0.661918863667E+03   -0.55006E-07   -0.16494E-02 20736   0.221E-01    0.301E-02
RMM:   2    -0.661918887223E+03   -0.23556E-04   -0.64895E-04 20829   0.512E-02    0.222E-02
RMM:   3    -0.661918899891E+03   -0.12668E-04   -0.95124E-05 17270   0.190E-02    0.164E-02
RMM:   4    -0.661918910887E+03   -0.10995E-04   -0.12965E-05 13787   0.887E-03    0.778E-03
RMM:   5    -0.661918915943E+03   -0.50563E-05   -0.50913E-06 13290   0.449E-03    0.380E-03
RMM:   6    -0.661918916314E+03   -0.37073E-06   -0.92939E-07 11853   0.291E-03
  36 F= -.66455371E+03 E0= -.66455309E+03  d E =-.114851E-03  mag=    -0.0000
       N       E                     dE             d eps       ncg     rms          rms(c)
RMM:   1    -0.661918955069E+03   -0.39126E-04   -0.29590E-03 20780   0.952E-02    0.128E-02
RMM:   2    -0.661918955760E+03   -0.69135E-06   -0.11620E-04 18006   0.223E-02    0.896E-03
RMM:   3    -0.661918960337E+03   -0.45771E-05   -0.15293E-05 13587   0.819E-03    0.580E-03
RMM:   4    -0.661918964193E+03   -0.38555E-05   -0.31246E-06 13043   0.466E-03    0.325E-03
RMM:   5    -0.661918965239E+03   -0.10466E-05   -0.10484E-06 11965   0.272E-03    0.191E-03
RMM:   6    -0.661918965425E+03   -0.18579E-06   -0.30386E-07  8643   0.179E-03
  37 F= -.66455377E+03 E0= -.66455314E+03  d E =-.531248E-04  mag=    -0.0000
       N       E                     dE             d eps       ncg     rms          rms(c)
RMM:   1    -0.661918964799E+03    0.44065E-06   -0.26547E-02 20885   0.285E-01    0.370E-02
RMM:   2    -0.661919009068E+03   -0.44269E-04   -0.10278E-03 20979   0.665E-02    0.262E-02
RMM:   3    -0.661919030987E+03   -0.21919E-04   -0.16092E-04 20629   0.256E-02    0.206E-02
RMM:   4    -0.661919040972E+03   -0.99855E-05   -0.18644E-05 14008   0.111E-02    0.122E-02
RMM:   5    -0.661919053099E+03   -0.12127E-04   -0.82664E-06 13563   0.617E-03    0.461E-03
RMM:   6    -0.661919054460E+03   -0.13609E-05   -0.16685E-06 13025   0.376E-03
  38 F= -.66455387E+03 E0= -.66455324E+03  d E =-.153769E-03  mag=    -0.0000
       N       E                     dE             d eps       ncg     rms          rms(c)
RMM:   1    -0.661918622524E+03    0.43057E-03   -0.10615E-01 20879   0.570E-01    0.741E-02
RMM:   2    -0.661918849676E+03   -0.22715E-03   -0.41116E-03 21096   0.133E-01    0.525E-02
RMM:   3    -0.661918924969E+03   -0.75293E-04   -0.64430E-04 22910   0.511E-02    0.414E-02
RMM:   4    -0.661918949111E+03   -0.24142E-04   -0.75053E-05 17174   0.200E-02    0.245E-02
RMM:   5    -0.661918976934E+03   -0.27823E-04   -0.31357E-05 14546   0.111E-02    0.896E-03
RMM:   6    -0.661918981035E+03   -0.41011E-05   -0.47498E-06 13551   0.602E-03
  39 F= -.66455382E+03 E0= -.66455320E+03  d E =-.103798E-03  mag=    -0.0000
       N       E                     dE             d eps       ncg     rms          rms(c)
RMM:   1    -0.661918914571E+03    0.62363E-04   -0.46095E-02 20895   0.375E-01    0.489E-02
RMM:   2    -0.661919000406E+03   -0.85836E-04   -0.17694E-03 21058   0.874E-02    0.340E-02
RMM:   3    -0.661919036061E+03   -0.35655E-04   -0.27174E-04 22056   0.332E-02    0.253E-02
RMM:   4    -0.661919050609E+03   -0.14548E-04   -0.31212E-05 14377   0.137E-02    0.150E-02
RMM:   5    -0.661919065219E+03   -0.14610E-04   -0.11934E-05 13451   0.757E-03    0.604E-03
RMM:   6    -0.661919067462E+03   -0.22425E-05   -0.26851E-06 12823   0.463E-03
  40 F= -.66455389E+03 E0= -.66455327E+03  d E =-.175867E-03  mag=     0.0000
       N       E                     dE             d eps       ncg     rms          rms(c)
RMM:   1    -0.661919109175E+03   -0.43955E-04   -0.11220E-02 20780   0.175E-01    0.248E-02
RMM:   2    -0.661919123010E+03   -0.13835E-04   -0.42989E-04 20663   0.411E-02    0.171E-02
RMM:   3    -0.661919132993E+03   -0.99827E-05   -0.60835E-05 15675   0.154E-02    0.130E-02
RMM:   4    -0.661919139140E+03   -0.61474E-05   -0.79541E-06 13119   0.743E-03    0.932E-03
RMM:   5    -0.661919144037E+03   -0.48971E-05   -0.33646E-06 12800   0.397E-03    0.513E-03
RMM:   6    -0.661919145869E+03   -0.18316E-05   -0.10041E-06 10747   0.270E-03
  41 F= -.66455398E+03 E0= -.66455336E+03  d E =-.887115E-04  mag=     0.0000
       N       E                     dE             d eps       ncg     rms          rms(c)
RMM:   1    -0.661919105931E+03    0.38106E-04   -0.22395E-02 20785   0.247E-01    0.352E-02
RMM:   2    -0.661919141194E+03   -0.35263E-04   -0.87262E-04 20860   0.584E-02    0.250E-02
RMM:   3    -0.661919158497E+03   -0.17303E-04   -0.13045E-04 19106   0.230E-02    0.209E-02
RMM:   4    -0.661919166375E+03   -0.78782E-05   -0.17272E-05 13976   0.104E-02    0.153E-02
RMM:   5    -0.661919177457E+03   -0.11082E-04   -0.73423E-06 13369   0.555E-03    0.648E-03
RMM:   6    -0.661919181077E+03   -0.36204E-05   -0.21371E-06 12655   0.353E-03
  42 F= -.66455403E+03 E0= -.66455341E+03  d E =-.139360E-03  mag=    -0.0000
       N       E                     dE             d eps       ncg     rms          rms(c)
RMM:   1    -0.661919218074E+03   -0.40617E-04   -0.51421E-03 20776   0.117E-01    0.164E-02
RMM:   2    -0.661919221179E+03   -0.31054E-05   -0.20317E-04 19112   0.281E-02    0.120E-02
RMM:   3    -0.661919226442E+03   -0.52624E-05   -0.29061E-05 14185   0.114E-02    0.105E-02
RMM:   4    -0.661919231518E+03   -0.50758E-05   -0.53408E-06 13194   0.667E-03    0.535E-03
RMM:   5    -0.661919235831E+03   -0.43137E-05   -0.24027E-06 12948   0.324E-03    0.224E-03
RMM:   6    -0.661919235966E+03   -0.13427E-06   -0.52586E-07  9912   0.223E-03
  43 F= -.66455409E+03 E0= -.66455347E+03  d E =-.609969E-04  mag=     0.0000
       N       E                     dE             d eps       ncg     rms          rms(c)
RMM:   1    -0.661919155319E+03    0.80512E-04   -0.46292E-02 20873   0.351E-01    0.483E-02
RMM:   2    -0.661919239996E+03   -0.84677E-04   -0.18054E-03 20937   0.832E-02    0.347E-02
RMM:   3    -0.661919275483E+03   -0.35487E-04   -0.27227E-04 21974   0.322E-02    0.275E-02
RMM:   4    -0.661919288630E+03   -0.13147E-04   -0.30207E-05 14342   0.134E-02    0.164E-02
RMM:   5    -0.661919306493E+03   -0.17863E-04   -0.13493E-05 13777   0.741E-03    0.659E-03
RMM:   6    -0.661919309285E+03   -0.27921E-05   -0.27098E-06 13167   0.456E-03
  44 F= -.66455418E+03 E0= -.66455356E+03  d E =-.152333E-03  mag=     0.0000
       N       E                     dE             d eps       ncg     rms          rms(c)
RMM:   1    -0.661919303218E+03    0.32756E-05   -0.17968E-03 20776   0.694E-02    0.996E-03
RMM:   2    -0.661919303193E+03    0.24542E-07   -0.72219E-05 15273   0.170E-02    0.778E-03
RMM:   3    -0.661919304875E+03   -0.16823E-05   -0.10109E-05 13412   0.733E-03    0.686E-03
RMM:   4    -0.661919307976E+03   -0.31004E-05   -0.22509E-06 13007   0.402E-03    0.361E-03
RMM:   5    -0.661919309822E+03   -0.18460E-05   -0.83499E-07 11072   0.229E-03    0.157E-03
RMM:   6    -0.661919309881E+03   -0.58881E-07   -0.23904E-07  8180   0.171E-03
  45 F= -.66455419E+03 E0= -.66455357E+03  d E =-.156858E-03  mag=     0.0000
       N       E                     dE             d eps       ncg     rms          rms(c)
RMM:   1    -0.661919333926E+03   -0.24104E-04   -0.41600E-03 20761   0.102E-01    0.139E-02
RMM:   2    -0.661919335769E+03   -0.18436E-05   -0.16052E-04 17919   0.243E-02    0.985E-03
RMM:   3    -0.661919341607E+03   -0.58375E-05   -0.20504E-05 13583   0.878E-03    0.647E-03
RMM:   4    -0.661919345736E+03   -0.41298E-05   -0.33587E-06 12992   0.481E-03    0.365E-03
RMM:   5    -0.661919347423E+03   -0.16861E-05   -0.11469E-06 11503   0.265E-03    0.166E-03
RMM:   6    -0.661919347534E+03   -0.11108E-06   -0.29451E-07  8282   0.177E-03
  46 F= -.66455423E+03 E0= -.66455361E+03  d E =-.429428E-04  mag=    -0.0000
       N       E                     dE             d eps       ncg     rms          rms(c)
RMM:   1    -0.661919288488E+03    0.58935E-04   -0.37444E-02 20860   0.305E-01    0.418E-02
RMM:   2    -0.661919347954E+03   -0.59467E-04   -0.14376E-03 20809   0.725E-02    0.296E-02
RMM:   3    -0.661919381081E+03   -0.33127E-04   -0.19366E-04 20218   0.260E-02    0.185E-02
RMM:   4    -0.661919399549E+03   -0.18468E-04   -0.23049E-05 14081   0.116E-02    0.986E-03
RMM:   5    -0.661919407044E+03   -0.74951E-05   -0.74882E-06 13672   0.632E-03    0.501E-03
RMM:   6    -0.661919408073E+03   -0.10290E-05   -0.18050E-06 13060   0.373E-03
  47 F= -.66455430E+03 E0= -.66455369E+03  d E =-.119251E-03  mag=    -0.0000
       N       E                     dE             d eps       ncg     rms          rms(c)
RMM:   1    -0.661919390183E+03    0.16861E-04   -0.63801E-03 20762   0.126E-01    0.176E-02
RMM:   2    -0.661919394584E+03   -0.44016E-05   -0.24827E-04 19625   0.304E-02    0.127E-02
RMM:   3    -0.661919401474E+03   -0.68898E-05   -0.32439E-05 14307   0.117E-02    0.963E-03
RMM:   4    -0.661919407525E+03   -0.60506E-05   -0.62418E-06 13279   0.642E-03    0.532E-03
RMM:   5    -0.661919411102E+03   -0.35772E-05   -0.21251E-06 12920   0.339E-03    0.231E-03
RMM:   6    -0.661919411332E+03   -0.22989E-06   -0.59765E-07  9879   0.226E-03
  48 F= -.66455431E+03 E0= -.66455370E+03  d E =-.129330E-03  mag=    -0.0000
       N       E                     dE             d eps       ncg     rms          rms(c)
RMM:   1    -0.661919414461E+03   -0.33586E-05   -0.14155E-02 20779   0.175E-01    0.272E-02
RMM:   2    -0.661919431233E+03   -0.16773E-04   -0.54309E-04 20593   0.430E-02    0.191E-02
RMM:   3    -0.661919442577E+03   -0.11344E-04   -0.71716E-05 15289   0.163E-02    0.155E-02
RMM:   4    -0.661919449013E+03   -0.64359E-05   -0.10879E-05 13507   0.808E-03    0.120E-02
RMM:   5    -0.661919456011E+03   -0.69979E-05   -0.40930E-06 13148   0.407E-03    0.564E-03
RMM:   6    -0.661919458757E+03   -0.27462E-05   -0.15370E-06 10487   0.276E-03
  49 F= -.66455438E+03 E0= -.66455376E+03  d E =-.608039E-04  mag=    -0.0000
       N       E                     dE             d eps       ncg     rms          rms(c)
RMM:   1    -0.661919443065E+03    0.12946E-04   -0.58060E-03 20776   0.112E-01    0.175E-02
RMM:   2    -0.661919446764E+03   -0.36994E-05   -0.22629E-04 18033   0.279E-02    0.130E-02
RMM:   3    -0.661919451683E+03   -0.49190E-05   -0.29471E-05 13924   0.110E-02    0.116E-02
RMM:   4    -0.661919455473E+03   -0.37894E-05   -0.52781E-06 13127   0.635E-03    0.850E-03
RMM:   5    -0.661919461589E+03   -0.61159E-05   -0.31919E-06 12791   0.326E-03    0.247E-03
RMM:   6    -0.661919461953E+03   -0.36446E-06   -0.52292E-07  8923   0.207E-03
  50 F= -.66455439E+03 E0= -.66455377E+03  d E =-.724842E-04  mag=    -0.0000
       N       E                     dE             d eps       ncg     rms          rms(c)
RMM:   1    -0.661919473029E+03   -0.11441E-04   -0.79312E-03 20776   0.131E-01    0.192E-02
RMM:   2    -0.661919479085E+03   -0.60554E-05   -0.30587E-04 19238   0.323E-02    0.138E-02
RMM:   3    -0.661919486645E+03   -0.75599E-05   -0.40210E-05 14293   0.128E-02    0.115E-02
RMM:   4    -0.661919493062E+03   -0.64172E-05   -0.65751E-06 13162   0.714E-03    0.583E-03
RMM:   5    -0.661919498448E+03   -0.53864E-05   -0.26228E-06 12767   0.328E-03    0.221E-03
RMM:   6    -0.661919498630E+03   -0.18194E-06   -0.55582E-07  9502   0.221E-03
  51 F= -.66455443E+03 E0= -.66455382E+03  d E =-.467832E-04  mag=    -0.0000
       N       E                     dE             d eps       ncg     rms          rms(c)
RMM:   1    -0.661919308702E+03    0.18975E-03   -0.69198E-02 20924   0.387E-01    0.564E-02
RMM:   2    -0.661919433889E+03   -0.12519E-03   -0.26569E-03 20979   0.946E-02    0.402E-02
RMM:   3    -0.661919482526E+03   -0.48637E-04   -0.36654E-04 21734   0.366E-02    0.314E-02
RMM:   4    -0.661919502701E+03   -0.20175E-04   -0.44231E-05 14723   0.146E-02    0.180E-02
RMM:   5    -0.661919525840E+03   -0.23139E-04   -0.16209E-05 13872   0.785E-03    0.640E-03
RMM:   6    -0.661919529148E+03   -0.33081E-05   -0.30314E-06 13252   0.457E-03
  52 F= -.66455449E+03 E0= -.66455387E+03  d E =-.107292E-03  mag=     0.0000
       N       E                     dE             d eps       ncg     rms          rms(c)
RMM:   1    -0.661919539293E+03   -0.13453E-04   -0.74596E-03 20776   0.125E-01    0.180E-02
RMM:   2    -0.661919544720E+03   -0.54269E-05   -0.28894E-04 18795   0.304E-02    0.131E-02
RMM:   3    -0.661919552515E+03   -0.77955E-05   -0.34401E-05 14088   0.110E-02    0.880E-03
RMM:   4    -0.661919560488E+03   -0.79726E-05   -0.60982E-06 13249   0.592E-03    0.494E-03
RMM:   5    -0.661919563223E+03   -0.27352E-05   -0.18803E-06 12539   0.327E-03    0.220E-03
RMM:   6    -0.661919563543E+03   -0.32016E-06   -0.45568E-07  9541   0.197E-03
  53 F= -.66455454E+03 E0= -.66455392E+03  d E =-.502316E-04  mag=    -0.0000
       N       E                     dE             d eps       ncg     rms          rms(c)
RMM:   1    -0.661919449043E+03    0.11418E-03   -0.39996E-02 20937   0.289E-01    0.410E-02
RMM:   2    -0.661919513674E+03   -0.64631E-04   -0.15421E-03 20733   0.697E-02    0.295E-02
RMM:   3    -0.661919544813E+03   -0.31139E-04   -0.19624E-04 18735   0.245E-02    0.190E-02
RMM:   4    -0.661919568062E+03   -0.23249E-04   -0.23036E-05 13928   0.102E-02    0.682E-03
RMM:   5    -0.661919574633E+03   -0.65707E-05   -0.64409E-06 13459   0.518E-03    0.400E-03
RMM:   6    -0.661919575144E+03   -0.51087E-06   -0.14085E-06 12558   0.327E-03
  54 F= -.66455459E+03 E0= -.66455397E+03  d E =-.972949E-04  mag=     0.0000
       N       E                     dE             d eps       ncg     rms          rms(c)
RMM:   1    -0.661919574599E+03    0.33815E-07   -0.76783E-03 20764   0.122E-01    0.197E-02
RMM:   2    -0.661919580623E+03   -0.60238E-05   -0.29783E-04 18208   0.303E-02    0.137E-02
RMM:   3    -0.661919587054E+03   -0.64313E-05   -0.35910E-05 14115   0.109E-02    0.111E-02
RMM:   4    -0.661919592064E+03   -0.50100E-05   -0.57610E-06 13264   0.568E-03    0.830E-03
RMM:   5    -0.661919597027E+03   -0.49631E-05   -0.24057E-06 12567   0.345E-03    0.528E-03
RMM:   6    -0.661919598860E+03   -0.18322E-05   -0.10527E-06 10230   0.253E-03
  55 F= -.66455464E+03 E0= -.66455402E+03  d E =-.438287E-04  mag=     0.0000
       N       E                     dE             d eps       ncg     rms          rms(c)
RMM:   1    -0.661919555606E+03    0.41421E-04   -0.11888E-02 20764   0.152E-01    0.238E-02
RMM:   2    -0.661919567822E+03   -0.12215E-04   -0.46033E-04 20207   0.376E-02    0.171E-02
RMM:   3    -0.661919577049E+03   -0.92278E-05   -0.58058E-05 14499   0.143E-02    0.150E-02
RMM:   4    -0.661919582212E+03   -0.51624E-05   -0.93435E-06 13360   0.753E-03    0.116E-02
RMM:   5    -0.661919590129E+03   -0.79170E-05   -0.36322E-06 12567   0.365E-03    0.530E-03
RMM:   6    -0.661919593006E+03   -0.28774E-05   -0.14410E-06 10371   0.272E-03
  56 F= -.66455465E+03 E0= -.66455404E+03  d E =-.626174E-04  mag=     0.0000
       N       E                     dE             d eps       ncg     rms          rms(c)
RMM:   1    -0.661919583368E+03    0.67612E-05   -0.82021E-03 20736   0.124E-01    0.188E-02
RMM:   2    -0.661919589045E+03   -0.56776E-05   -0.32034E-04 18064   0.313E-02    0.136E-02
RMM:   3    -0.661919596221E+03   -0.71760E-05   -0.40850E-05 14110   0.122E-02    0.119E-02
RMM:   4    -0.661919601904E+03   -0.56832E-05   -0.62613E-06 13140   0.671E-03    0.676E-03
RMM:   5    -0.661919609449E+03   -0.75446E-05   -0.25476E-06 12639   0.316E-03    0.236E-03
RMM:   6    -0.661919609726E+03   -0.27747E-06   -0.53147E-07  8994   0.211E-03
  57 F= -.66455469E+03 E0= -.66455408E+03  d E =-.375341E-04  mag=    -0.0000
       N       E                     dE             d eps       ncg     rms          rms(c)
RMM:   1    -0.661919376755E+03    0.23269E-03   -0.73754E-02 20913   0.371E-01    0.557E-02
RMM:   2    -0.661919506851E+03   -0.13010E-03   -0.28653E-03 20955   0.931E-02    0.397E-02
RMM:   3    -0.661919553824E+03   -0.46973E-04   -0.36656E-04 20562   0.344E-02    0.320E-02
RMM:   4    -0.661919573031E+03   -0.19208E-04   -0.45151E-05 14625   0.141E-02    0.203E-02
RMM:   5    -0.661919600683E+03   -0.27652E-04   -0.17056E-05 13953   0.783E-03    0.667E-03
RMM:   6    -0.661919605709E+03   -0.50260E-05   -0.33782E-06 13322   0.449E-03
  58 F= -.66455475E+03 E0= -.66455413E+03  d E =-.959576E-04  mag=    -0.0000
       N       E                     dE             d eps       ncg     rms          rms(c)
RMM:   1    -0.661919595548E+03    0.51349E-05   -0.11014E-02 20736   0.140E-01    0.217E-02
RMM:   2    -0.661919607719E+03   -0.12171E-04   -0.43988E-04 18812   0.356E-02    0.161E-02
RMM:   3    -0.661919616075E+03   -0.83564E-05   -0.55535E-05 14470   0.130E-02    0.130E-02
RMM:   4    -0.661919622237E+03   -0.61614E-05   -0.81098E-06 13425   0.707E-03    0.861E-03
RMM:   5    -0.661919629289E+03   -0.70517E-05   -0.42325E-06 12949   0.390E-03    0.415E-03
RMM:   6    -0.661919630431E+03   -0.11424E-05   -0.79520E-07  9898   0.246E-03
  59 F= -.66455480E+03 E0= -.66455418E+03  d E =-.459007E-04  mag=    -0.0000
       N       E                     dE             d eps       ncg     rms          rms(c)
RMM:   1    -0.661919619489E+03    0.97996E-05   -0.20593E-03 20163   0.607E-02    0.955E-03
RMM:   2    -0.661919619359E+03    0.13042E-06   -0.83075E-05 14366   0.156E-02    0.764E-03
RMM:   3    -0.661919620667E+03   -0.13087E-05   -0.10767E-05 13135   0.665E-03    0.699E-03
RMM:   4    -0.661919622987E+03   -0.23198E-05   -0.19764E-06 11342   0.333E-03    0.442E-03
RMM:   5    -0.661919625930E+03   -0.29426E-05   -0.11133E-06  9641   0.217E-03    0.171E-03
RMM:   6    -0.661919626010E+03   -0.80552E-07   -0.17131E-07  6436   0.151E-03
  60 F= -.66455480E+03 E0= -.66455418E+03  d E =-.506056E-04  mag=    -0.0000
       N       E                     dE             d eps       ncg     rms          rms(c)
RMM:   1    -0.661919627663E+03   -0.17334E-05   -0.49707E-03 20736   0.102E-01    0.152E-02
RMM:   2    -0.661919631192E+03   -0.35289E-05   -0.19775E-04 17420   0.259E-02    0.107E-02
RMM:   3    -0.661919634815E+03   -0.36225E-05   -0.26160E-05 13657   0.105E-02    0.971E-03
RMM:   4    -0.661919638098E+03   -0.32832E-05   -0.45167E-06 12866   0.579E-03    0.626E-03
RMM:   5    -0.661919643536E+03   -0.54383E-05   -0.20547E-06 12241   0.296E-03    0.244E-03
RMM:   6    -0.661919643860E+03   -0.32371E-06   -0.40239E-07  8457   0.192E-03
  61 F= -.66455483E+03 E0= -.66455422E+03  d E =-.336382E-04  mag=    -0.0000
       N       E                     dE             d eps       ncg     rms          rms(c)
RMM:   1    -0.661919498492E+03    0.14504E-03   -0.43806E-02 20819   0.301E-01    0.447E-02
RMM:   2    -0.661919576289E+03   -0.77797E-04   -0.17363E-03 21217   0.768E-02    0.317E-02
RMM:   3    -0.661919602973E+03   -0.26683E-04   -0.25051E-04 20031   0.307E-02    0.278E-02
RMM:   4    -0.661919614222E+03   -0.11249E-04   -0.31692E-05 14342   0.129E-02    0.201E-02
RMM:   5    -0.661919634879E+03   -0.20657E-04   -0.14326E-05 13792   0.710E-03    0.776E-03
RMM:   6    -0.661919640872E+03   -0.59932E-05   -0.27146E-06 13089   0.415E-03
  62 F= -.66455488E+03 E0= -.66455426E+03  d E =-.772482E-04  mag=    -0.0000
       N       E                     dE             d eps       ncg     rms          rms(c)
RMM:   1    -0.661919648334E+03   -0.13456E-04   -0.30696E-03 20736   0.798E-02    0.114E-02
RMM:   2    -0.661919649982E+03   -0.16484E-05   -0.12129E-04 15812   0.195E-02    0.885E-03
RMM:   3    -0.661919652398E+03   -0.24153E-05   -0.14706E-05 13341   0.720E-03    0.788E-03
RMM:   4    -0.661919654239E+03   -0.18415E-05   -0.28639E-06 12830   0.403E-03    0.676E-03
RMM:   5    -0.661919657433E+03   -0.31935E-05   -0.14676E-06 10739   0.264E-03    0.253E-03
RMM:   6    -0.661919658347E+03   -0.91460E-06   -0.46969E-07  9107   0.190E-03
  63 F= -.66455491E+03 E0= -.66455429E+03  d E =-.319393E-04  mag=     0.0000
       N       E                     dE             d eps       ncg     rms          rms(c)
RMM:   1    -0.661919641094E+03    0.16338E-04   -0.44748E-03 20736   0.962E-02    0.138E-02
RMM:   2    -0.661919644430E+03   -0.33357E-05   -0.17604E-04 16901   0.233E-02    0.102E-02
RMM:   3    -0.661919648069E+03   -0.36394E-05   -0.21237E-05 13356   0.824E-03    0.869E-03
RMM:   4    -0.661919650840E+03   -0.27706E-05   -0.38739E-06 12791   0.463E-03    0.689E-03
RMM:   5    -0.661919654053E+03   -0.32127E-05   -0.18802E-06 11074   0.295E-03    0.304E-03
RMM:   6    -0.661919655027E+03   -0.97413E-06   -0.63514E-07  9839   0.212E-03
  64 F= -.66455492E+03 E0= -.66455430E+03  d E =-.454096E-04  mag=     0.0000
       N       E                     dE             d eps       ncg     rms          rms(c)
RMM:   1    -0.661919657251E+03   -0.31978E-05   -0.24177E-03 20725   0.714E-02    0.965E-03
RMM:   2    -0.661919658370E+03   -0.11194E-05   -0.97985E-05 15092   0.176E-02    0.726E-03
RMM:   3    -0.661919660295E+03   -0.19253E-05   -0.12777E-05 12984   0.691E-03    0.647E-03
RMM:   4    -0.661919662376E+03   -0.20803E-05   -0.21664E-06 12361   0.377E-03    0.412E-03
RMM:   5    -0.661919665253E+03   -0.28773E-05   -0.10560E-06 10212   0.224E-03    0.168E-03
RMM:   6    -0.661919665392E+03   -0.13899E-06   -0.19523E-07  7003   0.164E-03
  65 F= -.66455495E+03 E0= -.66455433E+03  d E =-.220589E-04  mag=     0.0000
       N       E                     dE             d eps       ncg     rms          rms(c)
RMM:   1    -0.661919630705E+03    0.34547E-04   -0.88641E-03 20736   0.137E-01    0.182E-02
RMM:   2    -0.661919641708E+03   -0.11003E-04   -0.35537E-04 19418   0.339E-02    0.138E-02
RMM:   3    -0.661919647465E+03   -0.57573E-05   -0.49413E-05 14453   0.134E-02    0.125E-02
RMM:   4    -0.661919651820E+03   -0.43544E-05   -0.70829E-06 13044   0.720E-03    0.769E-03
RMM:   5    -0.661919659503E+03   -0.76827E-05   -0.43756E-06 12834   0.387E-03    0.248E-03
RMM:   6    -0.661919659614E+03   -0.11195E-06   -0.59813E-07  9830   0.225E-03
  66 F= -.66455496E+03 E0= -.66455435E+03  d E =-.388500E-04  mag=     0.0000
