 running on   96 total cores
 each image running on   24 cores
 distrk:  each k-point on   24 cores,    1 groups
 distr:  one band on   24 cores,    1 groups
 vasp.5.3.5 31Mar14 (build Oct 09 2016 14:59:48) gamma-only                     
  
 POSCAR found type information on POSCAR  P  Ru C  O 
 01/POSCAR found :  4 types and      53 ions
 scaLAPACK will be used

 ----------------------------------------------------------------------------- 
|                                                                             |
|           W    W    AA    RRRRR   N    N  II  N    N   GGGG   !!!           |
|           W    W   A  A   R    R  NN   N  II  NN   N  G    G  !!!           |
|           W    W  A    A  R    R  N N  N  II  N N  N  G       !!!           |
|           W WW W  AAAAAA  RRRRR   N  N N  II  N  N N  G  GGG   !            |
|           WW  WW  A    A  R   R   N   NN  II  N   NN  G    G                |
|           W    W  A    A  R    R  N    N  II  N    N   GGGG   !!!           |
|                                                                             |
|      For optimal performance we recommend to set                            |
|        NCORE= 4 - approx SQRT( number of cores)                             |
|      NCORE specifies how many cores store one orbital (NPAR=cpu/NCORE).     |
|      This setting can  greatly improve the performance of VASP for DFT.     |
|      The default, NPAR=number of cores might be grossly inefficient         |
|      on modern multi-core architectures or massively parallel machines.     |
|      Do your own testing !!!!                                               |
|      Unfortunately you need to use the default for GW and RPA calculations. |
|      (for HF NCORE is supported but not extensively tested yet)             |
|                                                                             |
 ----------------------------------------------------------------------------- 

 LDA part: xc-table for Pade appr. of Perdew
 WARNING: it is not advised to use IBRION=2 with the NEB.
 POSCAR found type information on POSCAR  P  Ru C  O 
 00/POSCAR found :  4 types and      53 ions
 POSCAR found type information on POSCAR  P  Ru C  O 
 05/POSCAR found :  4 types and      53 ions
 Jacobian:    29.3710031138459     
 POSCAR, INCAR and KPOINTS ok, starting setup
 FFT: planning ...
 WAVECAR not read
 WARNING: chargedensity file is incomplete
 entering main loop
       N       E                     dE             d eps       ncg     rms          rms(c)
RMM:   1     0.353080796457E+04    0.35308E+04   -0.72935E+04   378   0.928E+02
RMM:   2     0.121997515957E+04   -0.23108E+04   -0.25200E+04   378   0.203E+02
RMM:   3     0.421593081929E+03   -0.79838E+03   -0.10734E+04   378   0.118E+02
RMM:   4    -0.695242396385E+01   -0.42855E+03   -0.41579E+03   378   0.926E+01
RMM:   5    -0.177779069725E+03   -0.17083E+03   -0.14771E+03   378   0.603E+01
RMM:   6    -0.238653020403E+03   -0.60874E+02   -0.52441E+02   378   0.371E+01
RMM:   7    -0.261290445697E+03   -0.22637E+02   -0.20310E+02   378   0.231E+01
RMM:   8    -0.271497348504E+03   -0.10207E+02   -0.90546E+01   378   0.152E+01
RMM:   9    -0.276379650315E+03   -0.48823E+01   -0.43941E+01   378   0.104E+01
RMM:  10    -0.279133983094E+03   -0.27543E+01   -0.24424E+01   378   0.754E+00
RMM:  11    -0.280574158157E+03   -0.14402E+01   -0.13376E+01   378   0.541E+00
RMM:  12    -0.281385605677E+03   -0.81145E+00   -0.74120E+00   378   0.403E+00
RMM:  13    -0.281832916794E+03   -0.44731E+00   -0.42269E+00   378   0.292E+00
RMM:  14    -0.282098735183E+03   -0.26582E+00   -0.24403E+00   378   0.227E+00
RMM:  15    -0.282449682264E+03   -0.35095E+00   -0.34417E+00  1003   0.165E+00
RMM:  16    -0.282474495098E+03   -0.24813E-01   -0.19368E-01  1029   0.289E-01
RMM:  17    -0.282476940647E+03   -0.24455E-02   -0.19742E-02  1046   0.755E-02
RMM:  18    -0.282477166910E+03   -0.22626E-03   -0.26317E-03   865   0.279E-02
RMM:  19    -0.282477200909E+03   -0.33998E-04   -0.41676E-04   730   0.927E-03
RMM:  20    -0.282477205749E+03   -0.48400E-05   -0.60280E-05   593   0.415E-03    0.299E+01
RMM:  21    -0.291182006164E+03   -0.87048E+01   -0.77097E+00   765   0.482E+00    0.130E+01
RMM:  22    -0.291515065362E+03   -0.33306E+00   -0.31215E+00   760   0.260E+00    0.115E+01
RMM:  23    -0.290084857368E+03    0.14302E+01   -0.11583E+00   763   0.164E+00    0.764E+00
RMM:  24    -0.289920803621E+03    0.16405E+00   -0.13724E+00   764   0.204E+00    0.844E+00
RMM:  25    -0.289831406236E+03    0.89397E-01   -0.77790E-01   760   0.125E+00    0.378E+00
RMM:  26    -0.289538144081E+03    0.29326E+00   -0.21653E-01   770   0.798E-01    0.159E+00
RMM:  27    -0.289500817822E+03    0.37326E-01   -0.54915E-02   791   0.357E-01    0.810E-01
RMM:  28    -0.289493942047E+03    0.68758E-02   -0.20728E-02   763   0.219E-01    0.284E-01
RMM:  29    -0.289497118069E+03   -0.31760E-02   -0.51416E-03   762   0.134E-01    0.379E-01
RMM:  30    -0.289495782725E+03    0.13353E-02   -0.10362E-03   803   0.540E-02    0.137E-01
RMM:  31    -0.289495982607E+03   -0.19988E-03   -0.40485E-04   780   0.321E-02    0.623E-02
RMM:  32    -0.289496120652E+03   -0.13805E-03   -0.10913E-04   773   0.189E-02    0.659E-02
RMM:  33    -0.289496230121E+03   -0.10947E-03   -0.90993E-05   758   0.152E-02    0.772E-02
RMM:  34    -0.289496207454E+03    0.22668E-04   -0.11776E-05   623   0.107E-02    0.774E-02
RMM:  35    -0.289496450377E+03   -0.24292E-03   -0.12907E-04   754   0.186E-02    0.121E-01
RMM:  36    -0.289495992293E+03    0.45808E-03   -0.16638E-04   756   0.283E-02    0.953E-02
RMM:  37    -0.289495681093E+03    0.31120E-03   -0.28831E-04   758   0.251E-02    0.536E-02
RMM:  38    -0.289495854458E+03   -0.17336E-03   -0.13887E-04   763   0.184E-02    0.327E-02
RMM:  39    -0.289495963727E+03   -0.10927E-03   -0.24845E-05   686   0.124E-02    0.198E-02
RMM:  40    -0.289495969542E+03   -0.58148E-05   -0.86451E-06   555   0.480E-03    0.755E-03
RMM:  41    -0.289495971360E+03   -0.18182E-05   -0.72340E-06   545   0.418E-03    0.415E-03
RMM:  42    -0.289495979903E+03   -0.85432E-05   -0.13687E-06   496   0.368E-03    0.359E-03
RMM:  43    -0.289495979772E+03    0.13096E-06   -0.32291E-07   477   0.146E-03
   1 F= -.28949121E+03 E0= -.28949093E+03  d E =-.289491E+03  mag=    -0.0000
 curvature:   0.00 expect dE= 0.000E+00 dE for cont linesearch  0.000E+00
 trial: gam= 0.00000 g(F)=  0.289E+02 g(S)=  0.000E+00 ort = 0.000E+00 (trialstep = 0.100E+01)
 search vector abs. value=  0.289E+02
 bond charge predicted
       N       E                     dE             d eps       ncg     rms          rms(c)
RMM:   1    -0.279358320824E+03    0.10138E+02   -0.17398E+02   842   0.194E+01    0.169E+01
RMM:   2    -0.297034414153E+03   -0.17676E+02   -0.50094E+01   772   0.952E+00    0.107E+01
RMM:   3    -0.292884343785E+03    0.41501E+01   -0.25728E+00   772   0.331E+00    0.855E+00
RMM:   4    -0.290378412938E+03    0.25059E+01   -0.39339E+00   761   0.241E+00    0.415E+00
RMM:   5    -0.290048742699E+03    0.32967E+00   -0.15801E+00   852   0.147E+00    0.300E+00
RMM:   6    -0.290248523050E+03   -0.19978E+00   -0.43780E-01   762   0.878E-01    0.319E+00
RMM:   7    -0.289994978938E+03    0.25354E+00   -0.43605E-01   762   0.858E-01    0.195E+00
RMM:   8    -0.290008933332E+03   -0.13954E-01   -0.78873E-02   776   0.406E-01    0.189E+00
RMM:   9    -0.289971334438E+03    0.37599E-01   -0.37580E-01   797   0.606E-01    0.849E-01
RMM:  10    -0.289964523790E+03    0.68106E-02   -0.57533E-02   887   0.258E-01    0.630E-01
RMM:  11    -0.289954537518E+03    0.99863E-02   -0.11989E-02   760   0.138E-01    0.238E-01
RMM:  12    -0.289955640019E+03   -0.11025E-02   -0.21818E-03   797   0.625E-02    0.208E-01
RMM:  13    -0.289954936026E+03    0.70399E-03   -0.40816E-03   782   0.701E-02    0.735E-02
RMM:  14    -0.289954863171E+03    0.72855E-04   -0.31208E-04   801   0.267E-02    0.262E-02
RMM:  15    -0.289954892817E+03   -0.29646E-04   -0.99949E-05   805   0.112E-02    0.361E-02
RMM:  16    -0.289954864248E+03    0.28569E-04   -0.31669E-05   706   0.778E-03    0.173E-02
RMM:  17    -0.289954860180E+03    0.40677E-05   -0.17878E-05   642   0.493E-03    0.592E-03
RMM:  18    -0.289954861155E+03   -0.97491E-06   -0.29978E-06   533   0.262E-03
   2 F= -.28991987E+03 E0= -.28991987E+03  d E =-.428660E+00  mag=    -0.0000
 trial-energy change:   -0.428660  1 .order  -11.207181  -28.879122    6.464761
 step:   0.8171(harm=  0.8171)  dis= 0.18697  next Energy=  -301.289625 (dE=-0.118E+02)
 bond charge predicted
       N       E                     dE             d eps       ncg     rms          rms(c)
RMM:   1    -0.290542839717E+03   -0.58798E+00   -0.25461E+01   770   0.793E+00    0.102E+00
RMM:   2    -0.290381616667E+03    0.16122E+00   -0.50869E-01   762   0.115E+00    0.151E+00
RMM:   3    -0.290362335608E+03    0.19281E-01   -0.16782E-02   912   0.200E-01    0.122E+00
RMM:   4    -0.290351735023E+03    0.10601E-01   -0.34190E-02   760   0.236E-01    0.505E-01
RMM:   5    -0.290357126944E+03   -0.53919E-02   -0.17183E-02   760   0.192E-01    0.344E-01
RMM:   6    -0.290355755912E+03    0.13710E-02   -0.12981E-03   764   0.630E-02    0.219E-01
RMM:   7    -0.290355444306E+03    0.31161E-03   -0.49751E-04   758   0.323E-02    0.134E-01
RMM:   8    -0.290355273291E+03    0.17102E-03   -0.81442E-04   758   0.394E-02    0.363E-02
RMM:   9    -0.290355283869E+03   -0.10577E-04   -0.20475E-04   745   0.197E-02    0.147E-02
RMM:  10    -0.290355284583E+03   -0.71479E-06   -0.19122E-05   728   0.692E-03    0.871E-03
RMM:  11    -0.290355283322E+03    0.12618E-05   -0.34196E-06   545   0.295E-03    0.396E-03
RMM:  12    -0.290355283546E+03   -0.22452E-06   -0.10324E-06   494   0.199E-03
   3 F= -.29032572E+03 E0= -.29032572E+03  d E =-.834516E+00  mag=     0.0000
 curvature:  -0.41 expect dE=-0.156E+01 dE for cont linesearch -0.367E+00
 ZBRENT: interpolating
 opt :   0.6946  next Energy=  -290.637523 (dE=-0.115E+01)
 bond charge predicted
       N       E                     dE             d eps       ncg     rms          rms(c)
RMM:   1    -0.290621542481E+03   -0.26626E+00   -0.11329E+01   772   0.534E+00    0.655E-01
RMM:   2    -0.290565588831E+03    0.55954E-01   -0.18787E-01   762   0.783E-01    0.883E-01
RMM:   3    -0.290561052326E+03    0.45365E-02   -0.12052E-02   930   0.139E-01    0.750E-01
RMM:   4    -0.290558156733E+03    0.28956E-02   -0.39782E-03   761   0.870E-02    0.476E-01
RMM:   5    -0.290562068369E+03   -0.39116E-02   -0.18729E-02   756   0.195E-01    0.286E-01
RMM:   6    -0.290561018234E+03    0.10501E-02   -0.68475E-04   771   0.464E-02    0.193E-01
RMM:   7    -0.290560530858E+03    0.48738E-03   -0.10693E-03   746   0.405E-02    0.531E-02
RMM:   8    -0.290560589350E+03   -0.58492E-04   -0.45751E-04   762   0.286E-02    0.265E-02
RMM:   9    -0.290560582505E+03    0.68445E-05   -0.26933E-05   695   0.933E-03    0.139E-02
RMM:  10    -0.290560578580E+03    0.39255E-05   -0.92411E-06   628   0.405E-03    0.715E-03
RMM:  11    -0.290560577994E+03    0.58592E-06   -0.30585E-06   523   0.260E-03
   4 F= -.29053471E+03 E0= -.29053471E+03  d E =-.104350E+01  mag=    -0.0000
 curvature:  -0.35 expect dE=-0.965E+00 dE for cont linesearch -0.165E+00
 ZBRENT: interpolating
 opt :   0.4035  next Energy=  -291.135931 (dE=-0.164E+01)
 bond charge predicted
       N       E                     dE             d eps       ncg     rms          rms(c)
RMM:   1    -0.291276391390E+03   -0.71581E+00   -0.63134E+01   771   0.125E+01    0.471E+00
RMM:   2    -0.292053968157E+03   -0.77758E+00   -0.50131E+00   765   0.295E+00    0.662E+00
RMM:   3    -0.291108353064E+03    0.94562E+00   -0.30161E-01   761   0.850E-01    0.450E+00
RMM:   4    -0.290826257603E+03    0.28210E+00   -0.24981E-01   759   0.644E-01    0.267E+00
RMM:   5    -0.290715384276E+03    0.11087E+00   -0.20011E-01   768   0.537E-01    0.913E-01
RMM:   6    -0.290725091905E+03   -0.97076E-02   -0.31247E-02   825   0.280E-01    0.581E-01
RMM:   7    -0.290728649851E+03   -0.35579E-02   -0.14280E-02   774   0.173E-01    0.174E-01
RMM:   8    -0.290731091897E+03   -0.24420E-02   -0.36702E-03   799   0.858E-02    0.345E-01
RMM:   9    -0.290729944330E+03    0.11476E-02   -0.63930E-04   771   0.374E-02    0.187E-01
RMM:  10    -0.290729653505E+03    0.29082E-03   -0.89427E-04   758   0.383E-02    0.459E-02
RMM:  11    -0.290729680292E+03   -0.26787E-04   -0.15051E-04   761   0.212E-02    0.237E-02
RMM:  12    -0.290729673936E+03    0.63559E-05   -0.24013E-05   704   0.835E-03    0.647E-03
RMM:  13    -0.290729675052E+03   -0.11157E-05   -0.29391E-06   523   0.302E-03    0.352E-03
RMM:  14    -0.290729675296E+03   -0.24415E-06   -0.11521E-06   491   0.218E-03
   5 F= -.29071285E+03 E0= -.29071285E+03  d E =-.122164E+01  mag=    -0.0000
 curvature:  -1.26 expect dE=-0.195E+01 dE for cont linesearch -0.201E+00
 ZBRENT: interpolating
 opt :   0.5102  next Energy=  -290.827156 (dE=-0.134E+01)
 bond charge predicted
       N       E                     dE             d eps       ncg     rms          rms(c)
RMM:   1    -0.290766425783E+03   -0.36751E-01   -0.89066E+00   774   0.491E+00    0.733E-01
RMM:   2    -0.290732184425E+03    0.34241E-01   -0.11703E-01   756   0.611E-01    0.446E-01
RMM:   3    -0.290730539447E+03    0.16450E-02   -0.13002E-02   847   0.147E-01    0.477E-01
RMM:   4    -0.290730743989E+03   -0.20454E-03   -0.23902E-03   756   0.903E-02    0.296E-01
RMM:   5    -0.290732194381E+03   -0.14504E-02   -0.31781E-03   756   0.912E-02    0.112E-01
RMM:   6    -0.290732432616E+03   -0.23823E-03   -0.61907E-04   762   0.394E-02    0.756E-02
RMM:   7    -0.290732564663E+03   -0.13205E-03   -0.21415E-04   768   0.219E-02    0.291E-02
RMM:   8    -0.290732570146E+03   -0.54830E-05   -0.43201E-05   688   0.116E-02    0.116E-02
RMM:   9    -0.290732571703E+03   -0.15575E-05   -0.59767E-06   634   0.483E-03    0.657E-03
RMM:  10    -0.290732571543E+03    0.15978E-06   -0.36153E-06   524   0.302E-03
   6 F= -.29071240E+03 E0= -.29071240E+03  d E =-.122119E+01  mag=    -0.0000
 curvature:  -0.72 expect dE=-0.118E+01 dE for cont linesearch -0.744E-02
 ZBRENT: interpolating
 opt :   0.4885  next Energy=  -290.718330 (dE=-0.123E+01)
 bond charge predicted
       N       E                     dE             d eps       ncg     rms          rms(c)
RMM:   1    -0.290740410648E+03   -0.78389E-02   -0.36470E-01   776   0.985E-01    0.122E-01
RMM:   2    -0.290739022702E+03    0.13879E-02   -0.53960E-03   756   0.127E-01    0.132E-01
RMM:   3    -0.290738877998E+03    0.14470E-03   -0.43856E-04   861   0.272E-02    0.106E-01
RMM:   4    -0.290738921852E+03   -0.43854E-04   -0.72430E-05   698   0.144E-02    0.750E-02
RMM:   5    -0.290739035634E+03   -0.11378E-03   -0.36647E-04   748   0.324E-02    0.232E-02
RMM:   6    -0.290739033122E+03    0.25122E-05   -0.14912E-05   642   0.714E-03    0.194E-02
RMM:   7    -0.290739028072E+03    0.50496E-05   -0.14467E-05   629   0.524E-03    0.915E-03
RMM:   8    -0.290739030373E+03   -0.23012E-05   -0.88688E-06   592   0.449E-03    0.365E-03
RMM:   9    -0.290739030712E+03   -0.33889E-06   -0.82529E-07   468   0.191E-03
   7 F= -.29071953E+03 E0= -.29071953E+03  d E =-.122832E+01  mag=    -0.0000
 curvature:  -0.57 expect dE=-0.903E+00 dE for cont linesearch -0.747E-04
 trial: gam= 0.05676 g(F)=  0.158E+01 g(S)=  0.000E+00 ort =-0.614E-01 (trialstep = 0.898E+00)
 search vector abs. value=  0.166E+01
 bond charge predicted
       N       E                     dE             d eps       ncg     rms          rms(c)
RMM:   1    -0.290764372760E+03   -0.25342E-01   -0.24083E+01   770   0.735E+00    0.124E+00
RMM:   2    -0.290709935486E+03    0.54437E-01   -0.41114E-01   766   0.128E+00    0.109E+00
RMM:   3    -0.290695780270E+03    0.14155E-01   -0.27460E-02   827   0.243E-01    0.834E-01
RMM:   4    -0.290686479430E+03    0.93008E-02   -0.35267E-02   760   0.246E-01    0.383E-01
RMM:   5    -0.290684479945E+03    0.19995E-02   -0.72731E-03   759   0.118E-01    0.157E-01
RMM:   6    -0.290684106841E+03    0.37310E-03   -0.84788E-04   777   0.474E-02    0.108E-01
RMM:   7    -0.290684024692E+03    0.82150E-04   -0.81109E-04   779   0.352E-02    0.607E-02
RMM:   8    -0.290684035103E+03   -0.10412E-04   -0.12030E-04   762   0.169E-02    0.324E-02
RMM:   9    -0.290684046411E+03   -0.11308E-04   -0.40505E-05   748   0.107E-02    0.187E-02
RMM:  10    -0.290684044591E+03    0.18204E-05   -0.29713E-05   719   0.786E-03    0.874E-03
RMM:  11    -0.290684044197E+03    0.39417E-06   -0.27290E-06   524   0.373E-03
   8 F= -.29066758E+03 E0= -.29066758E+03  d E =0.519502E-01  mag=     0.0000
 trial-energy change:    0.051950  1 .order   -0.411562   -1.413137    0.590013
 step:   0.6333(harm=  0.6333)  dis= 0.02244  next Energy=  -291.217981 (dE=-0.498E+00)
 bond charge predicted
       N       E                     dE             d eps       ncg     rms          rms(c)
RMM:   1    -0.290787485201E+03   -0.10344E+00   -0.21121E+00   770   0.224E+00    0.436E-01
RMM:   2    -0.290783129710E+03    0.43555E-02   -0.33020E-02   766   0.384E-01    0.361E-01
RMM:   3    -0.290781995623E+03    0.11341E-02   -0.28403E-03   792   0.803E-02    0.263E-01
RMM:   4    -0.290780773193E+03    0.12224E-02   -0.28515E-03   760   0.691E-02    0.974E-02
RMM:   5    -0.290780749184E+03    0.24009E-04   -0.67067E-04   760   0.370E-02    0.545E-02
RMM:   6    -0.290780702977E+03    0.46207E-04   -0.69657E-05   722   0.133E-02    0.318E-02
RMM:   7    -0.290780703511E+03   -0.53378E-06   -0.65737E-05   730   0.106E-02    0.138E-02
RMM:   8    -0.290780706866E+03   -0.33547E-05   -0.69212E-06   612   0.526E-03    0.697E-03
RMM:   9    -0.290780707124E+03   -0.25879E-06   -0.28800E-06   526   0.305E-03
   9 F= -.29076338E+03 E0= -.29076338E+03  d E =-.438537E-01  mag=     0.0000
 curvature:  -0.33 expect dE=-0.422E+00 dE for cont linesearch -0.156E-02
 trial: gam= 0.75523 g(F)=  0.126E+01 g(S)=  0.000E+00 ort = 0.882E-01 (trialstep = 0.600E+00)
 search vector abs. value=  0.234E+01
 bond charge predicted
       N       E                     dE             d eps       ncg     rms          rms(c)
RMM:   1    -0.290924373307E+03   -0.14367E+00   -0.93415E+00   758   0.524E+00    0.762E-01
RMM:   2    -0.290895460045E+03    0.28913E-01   -0.13668E-01   760   0.800E-01    0.639E-01
RMM:   3    -0.290890949070E+03    0.45110E-02   -0.13964E-02   890   0.177E-01    0.481E-01
RMM:   4    -0.290888369726E+03    0.25793E-02   -0.53552E-03   756   0.109E-01    0.252E-01
RMM:   5    -0.290888180929E+03    0.18880E-03   -0.31414E-03   758   0.871E-02    0.897E-02
RMM:   6    -0.290888078158E+03    0.10277E-03   -0.35846E-04   769   0.313E-02    0.523E-02
RMM:   7    -0.290888043651E+03    0.34508E-04   -0.13707E-04   778   0.163E-02    0.417E-02
RMM:   8    -0.290888049960E+03   -0.63090E-05   -0.79825E-05   756   0.142E-02    0.147E-02
RMM:   9    -0.290888057701E+03   -0.77414E-05   -0.15041E-05   691   0.725E-03    0.817E-03
RMM:  10    -0.290888057036E+03    0.66527E-06   -0.39291E-06   560   0.324E-03
  10 F= -.29086687E+03 E0= -.29086687E+03  d E =-.103487E+00  mag=    -0.0000
 trial-energy change:   -0.103487  1 .order   -0.576385   -0.796005   -0.356765
 step:   1.0877(harm=  1.0877)  dis= 0.03427  next Energy=  -291.484654 (dE=-0.721E+00)
 bond charge predicted
       N       E                     dE             d eps       ncg     rms          rms(c)
RMM:   1    -0.290889881943E+03   -0.18242E-02   -0.61525E+00   758   0.434E+00    0.583E-01
RMM:   2    -0.290871145858E+03    0.18736E-01   -0.89234E-02   760   0.646E-01    0.493E-01
RMM:   3    -0.290868704994E+03    0.24409E-02   -0.88345E-03   883   0.141E-01    0.381E-01
RMM:   4    -0.290867152812E+03    0.15522E-02   -0.30806E-03   756   0.872E-02    0.190E-01
RMM:   5    -0.290867083805E+03    0.69007E-04   -0.20003E-03   758   0.723E-02    0.571E-02
RMM:   6    -0.290867053338E+03    0.30468E-04   -0.16115E-04   775   0.215E-02    0.406E-02
RMM:   7    -0.290867035309E+03    0.18028E-04   -0.59185E-05   756   0.113E-02    0.308E-02
RMM:   8    -0.290867043867E+03   -0.85574E-05   -0.51655E-05   745   0.113E-02    0.107E-02
RMM:   9    -0.290867047411E+03   -0.35446E-05   -0.56411E-06   591   0.504E-03    0.568E-03
RMM:  10    -0.290867047175E+03    0.23680E-06   -0.22108E-06   521   0.268E-03
  11 F= -.29084241E+03 E0= -.29084241E+03  d E =-.790334E-01  mag=    -0.0000
 curvature:  -0.96 expect dE=-0.909E+00 dE for cont linesearch -0.633E-03
 trial: gam= 0.91837 g(F)=  0.947E+00 g(S)=  0.000E+00 ort = 0.393E-01 (trialstep = 0.546E+00)
 search vector abs. value=  0.299E+01
 bond charge predicted
       N       E                     dE             d eps       ncg     rms          rms(c)
RMM:   1    -0.290992252786E+03   -0.12521E+00   -0.95018E+00   762   0.527E+00    0.717E-01
RMM:   2    -0.290976533709E+03    0.15719E-01   -0.16489E-01   766   0.854E-01    0.859E-01
RMM:   3    -0.290967386131E+03    0.91476E-02   -0.12230E-02   876   0.169E-01    0.575E-01
RMM:   4    -0.290965453657E+03    0.19325E-02   -0.79042E-03   756   0.123E-01    0.351E-01
RMM:   5    -0.290965558815E+03   -0.10516E-03   -0.49215E-03   758   0.112E-01    0.164E-01
RMM:   6    -0.290965328496E+03    0.23032E-03   -0.80802E-04   762   0.458E-02    0.783E-02
RMM:   7    -0.290965260701E+03    0.67794E-04   -0.14824E-04   758   0.191E-02    0.653E-02
RMM:   8    -0.290965228268E+03    0.32433E-04   -0.22013E-04   756   0.194E-02    0.186E-02
RMM:   9    -0.290965232770E+03   -0.45020E-05   -0.21651E-05   689   0.971E-03    0.925E-03
RMM:  10    -0.290965233354E+03   -0.58336E-06   -0.83150E-06   640   0.492E-03
  12 F= -.29094277E+03 E0= -.29094274E+03  d E =-.100357E+00  mag=    -0.0000
 trial-energy change:   -0.100357  1 .order   -0.365279   -0.536430   -0.194127
 step:   0.8551(harm=  0.8551)  dis= 0.02313  next Energy=  -291.262740 (dE=-0.420E+00)
 bond charge predicted
       N       E                     dE             d eps       ncg     rms          rms(c)
RMM:   1    -0.290966664755E+03   -0.14320E-02   -0.30618E+00   762   0.292E+00    0.418E-01
RMM:   2    -0.290960687835E+03    0.59769E-02   -0.49572E-02   768   0.470E-01    0.462E-01
RMM:   3    -0.290958475040E+03    0.22128E-02   -0.38711E-03   860   0.938E-02    0.305E-01
RMM:   4    -0.290957910689E+03    0.56435E-03   -0.22034E-03   758   0.661E-02    0.158E-01
RMM:   5    -0.290957975776E+03   -0.65087E-04   -0.14142E-03   756   0.585E-02    0.521E-02
RMM:   6    -0.290957966053E+03    0.97233E-05   -0.10722E-04   756   0.171E-02    0.380E-02
RMM:   7    -0.290957949148E+03    0.16904E-04   -0.55816E-05   710   0.978E-03    0.209E-02
RMM:   8    -0.290957953640E+03   -0.44918E-05   -0.25069E-05   698   0.744E-03    0.896E-03
RMM:   9    -0.290957954018E+03   -0.37735E-06   -0.43876E-06   554   0.417E-03
  13 F= -.29093674E+03 E0= -.29093664E+03  d E =-.943221E-01  mag=    -0.0000
 curvature:  -1.30 expect dE=-0.937E+00 dE for cont linesearch -0.693E-04
 trial: gam= 0.74343 g(F)=  0.719E+00 g(S)=  0.000E+00 ort =-0.126E-01 (trialstep = 0.608E+00)
 search vector abs. value=  0.236E+01
 bond charge predicted
       N       E                     dE             d eps       ncg     rms          rms(c)
RMM:   1    -0.291023021229E+03   -0.65068E-01   -0.82118E+00   766   0.492E+00    0.968E-01
RMM:   2    -0.291047722831E+03   -0.24702E-01   -0.17444E-01   756   0.692E-01    0.153E+00
RMM:   3    -0.291000956427E+03    0.46766E-01   -0.19190E-02   776   0.220E-01    0.798E-01
RMM:   4    -0.290995696451E+03    0.52600E-02   -0.11953E-02   767   0.147E-01    0.417E-01
RMM:   5    -0.290998227582E+03   -0.25311E-02   -0.40077E-03   811   0.979E-02    0.493E-01
RMM:   6    -0.290996386442E+03    0.18411E-02   -0.24883E-03   756   0.730E-02    0.125E-01
RMM:   7    -0.290996472104E+03   -0.85662E-04   -0.11964E-04   758   0.284E-02    0.678E-02
RMM:   8    -0.290996425871E+03    0.46233E-04   -0.10114E-04   762   0.147E-02    0.367E-02
RMM:   9    -0.290996432392E+03   -0.65208E-05   -0.25188E-05   714   0.892E-03    0.224E-02
RMM:  10    -0.290996431657E+03    0.73492E-06   -0.10538E-05   645   0.517E-03    0.685E-03
RMM:  11    -0.290996433546E+03   -0.18885E-05   -0.17365E-06   511   0.288E-03    0.343E-03
RMM:  12    -0.290996433417E+03    0.12855E-06   -0.76309E-07   480   0.187E-03
  14 F= -.29097350E+03 E0= -.29097324E+03  d E =-.367587E-01  mag=    -0.0000
 trial-energy change:   -0.036759  1 .order   -0.296815   -0.431350   -0.162280
 step:   0.9740(harm=  0.9740)  dis= 0.02384  next Energy=  -291.282488 (dE=-0.346E+00)
 bond charge predicted
       N       E                     dE             d eps       ncg     rms          rms(c)
RMM:   1    -0.290993858120E+03    0.25754E-02   -0.30051E+00   766   0.297E+00    0.468E-01
RMM:   2    -0.290995426024E+03   -0.15679E-02   -0.50663E-02   760   0.398E-01    0.837E-01
RMM:   3    -0.290984251899E+03    0.11174E-01   -0.51961E-03   796   0.111E-01    0.359E-01
RMM:   4    -0.290984686897E+03   -0.43500E-03   -0.26747E-03   765   0.727E-02    0.312E-01
RMM:   5    -0.290984340606E+03    0.34629E-03   -0.11581E-03   762   0.611E-02    0.783E-02
RMM:   6    -0.290984429882E+03   -0.89276E-04   -0.25311E-04   760   0.274E-02    0.450E-02
RMM:   7    -0.290984404234E+03    0.25648E-04   -0.29357E-05   701   0.100E-02    0.268E-02
RMM:   8    -0.290984405429E+03   -0.11954E-05   -0.31654E-05   710   0.865E-03    0.149E-02
RMM:   9    -0.290984406902E+03   -0.14727E-05   -0.77484E-06   622   0.509E-03    0.592E-03
RMM:  10    -0.290984406957E+03   -0.54859E-07   -0.12151E-06   494   0.238E-03
  15 F= -.29096040E+03 E0= -.29095997E+03  d E =-.236612E-01  mag=    -0.0000
 curvature:  -1.62 expect dE=-0.763E+00 dE for cont linesearch -0.791E-04
 trial: gam= 0.58472 g(F)=  0.472E+00 g(S)=  0.000E+00 ort =-0.107E-01 (trialstep = 0.681E+00)
 search vector abs. value=  0.126E+01
 bond charge predicted
       N       E                     dE             d eps       ncg     rms          rms(c)
RMM:   1    -0.291018813364E+03   -0.34406E-01   -0.51238E+00   764   0.368E+00    0.761E-01
RMM:   2    -0.291032552139E+03   -0.13739E-01   -0.10628E-01   762   0.607E-01    0.123E+00
RMM:   3    -0.291005983502E+03    0.26569E-01   -0.11037E-02   770   0.153E-01    0.603E-01
RMM:   4    -0.291005466789E+03    0.51671E-03   -0.68522E-03   762   0.113E-01    0.602E-01
RMM:   5    -0.291004029354E+03    0.14374E-02   -0.42034E-03   762   0.991E-02    0.206E-01
RMM:   6    -0.291003954830E+03    0.74524E-04   -0.81441E-04   756   0.438E-02    0.882E-02
RMM:   7    -0.291003927451E+03    0.27379E-04   -0.12246E-04   756   0.202E-02    0.569E-02
RMM:   8    -0.291003920192E+03    0.72593E-05   -0.12265E-04   741   0.148E-02    0.559E-02
RMM:   9    -0.291003894763E+03    0.25429E-04   -0.50587E-05   739   0.115E-02    0.161E-02
RMM:  10    -0.291003898622E+03   -0.38586E-05   -0.57009E-06   569   0.515E-03    0.848E-03
RMM:  11    -0.291003900612E+03   -0.19903E-05   -0.15188E-06   509   0.254E-03    0.837E-03
RMM:  12    -0.291003898977E+03    0.16351E-05   -0.52180E-07   473   0.186E-03    0.775E-03
RMM:  13    -0.291003893450E+03    0.55266E-05   -0.31673E-06   511   0.309E-03    0.476E-03
RMM:  14    -0.291003898410E+03   -0.49598E-05   -0.16450E-06   495   0.243E-03    0.523E-03
RMM:  15    -0.291003898919E+03   -0.50920E-06   -0.35091E-07   436   0.144E-03
  16 F= -.29098198E+03 E0= -.29098117E+03  d E =-.215790E-01  mag=     0.0000
 trial-energy change:   -0.021579  1 .order   -0.144988   -0.317208    0.027232
 step:   0.6270(harm=  0.6270)  dis= 0.01194  next Energy=  -291.106462 (dE=-0.146E+00)
 bond charge predicted
       N       E                     dE             d eps       ncg     rms          rms(c)
RMM:   1    -0.291005524313E+03   -0.16259E-02   -0.32386E-02   765   0.292E-01    0.453E-02
RMM:   2    -0.291005430835E+03    0.93478E-04   -0.50642E-04   753   0.461E-02    0.363E-02
RMM:   3    -0.291005425788E+03    0.50475E-05   -0.55206E-05   720   0.107E-02    0.264E-02
RMM:   4    -0.291005432848E+03   -0.70599E-05   -0.23310E-05   686   0.679E-03    0.360E-02
RMM:   5    -0.291005421226E+03    0.11622E-04   -0.91716E-06   615   0.509E-03    0.714E-03
RMM:   6    -0.291005423600E+03   -0.23742E-05   -0.11565E-06   470   0.242E-03    0.478E-03
RMM:   7    -0.291005423835E+03   -0.23495E-06   -0.94557E-07   431   0.183E-03
  17 F= -.29098334E+03 E0= -.29098257E+03  d E =-.229419E-01  mag=     0.0001
 curvature:  -0.85 expect dE=-0.266E+00 dE for cont linesearch -0.166E-06
 trial: gam= 0.59201 g(F)=  0.312E+00 g(S)=  0.000E+00 ort = 0.497E-03 (trialstep = 0.670E+00)
 search vector abs. value=  0.756E+00
 bond charge predicted
       N       E                     dE             d eps       ncg     rms          rms(c)
RMM:   1    -0.291035888168E+03   -0.30465E-01   -0.32864E+00   764   0.299E+00    0.496E-01
RMM:   2    -0.291031795304E+03    0.40929E-02   -0.49854E-02   761   0.374E-01    0.819E-01
RMM:   3    -0.291020000050E+03    0.11795E-01   -0.73029E-03   807   0.121E-01    0.299E-01
RMM:   4    -0.291020641148E+03   -0.64110E-03   -0.15784E-03   788   0.573E-02    0.265E-01
RMM:   5    -0.291021229919E+03   -0.58877E-03   -0.11842E-03   761   0.545E-02    0.107E-01
RMM:   6    -0.291021266864E+03   -0.36945E-04   -0.31448E-04   758   0.303E-02    0.479E-02
RMM:   7    -0.291021285716E+03   -0.18852E-04   -0.10480E-04   735   0.149E-02    0.649E-02
RMM:   8    -0.291021244801E+03    0.40915E-04   -0.40430E-05   700   0.916E-03    0.235E-02
RMM:   9    -0.291021248445E+03   -0.36440E-05   -0.12847E-05   672   0.666E-03    0.119E-02
RMM:  10    -0.291021249563E+03   -0.11174E-05   -0.40176E-06   542   0.336E-03    0.105E-02
RMM:  11    -0.291021247762E+03    0.18010E-05   -0.82205E-07   486   0.228E-03    0.103E-02
RMM:  12    -0.291021242254E+03    0.55073E-05   -0.27883E-06   504   0.297E-03    0.822E-03
RMM:  13    -0.291021244456E+03   -0.22014E-05   -0.19845E-06   500   0.255E-03    0.256E-03
RMM:  14    -0.291021246692E+03   -0.22366E-05   -0.39953E-07   452   0.168E-03    0.207E-03
RMM:  15    -0.291021247027E+03   -0.33458E-06   -0.17593E-07   397   0.103E-03
  18 F= -.29099836E+03 E0= -.29099752E+03  d E =-.150187E-01  mag=    -0.0000
 trial-energy change:   -0.015019  1 .order   -0.137744   -0.209314   -0.066175
 step:   0.9799(harm=  0.9799)  dis= 0.01716  next Energy=  -291.136380 (dE=-0.153E+00)
 bond charge predicted
       N       E                     dE             d eps       ncg     rms          rms(c)
RMM:   1    -0.291028109254E+03   -0.68626E-02   -0.70458E-01   764   0.139E+00    0.174E-01
RMM:   2    -0.291025108795E+03    0.30005E-02   -0.90511E-03   766   0.168E-01    0.199E-01
RMM:   3    -0.291024795973E+03    0.31282E-03   -0.12426E-03   892   0.466E-02    0.145E-01
RMM:   4    -0.291024817269E+03   -0.21296E-04   -0.16190E-04   762   0.216E-02    0.901E-02
RMM:   5    -0.291024891189E+03   -0.73921E-04   -0.21539E-04   756   0.248E-02    0.265E-02
RMM:   6    -0.291024889735E+03    0.14541E-05   -0.26849E-05   694   0.966E-03    0.173E-02
RMM:   7    -0.291024889728E+03    0.71832E-08   -0.96330E-06   659   0.470E-03
  19 F= -.29100159E+03 E0= -.29100073E+03  d E =-.182460E-01  mag=    -0.0002
 curvature:  -1.19 expect dE=-0.302E+00 dE for cont linesearch -0.358E-03
 trial: gam= 0.82491 g(F)=  0.255E+00 g(S)=  0.000E+00 ort =-0.151E-01 (trialstep = 0.732E+00)
 search vector abs. value=  0.744E+00
 bond charge predicted
       N       E                     dE             d eps       ncg     rms          rms(c)
RMM:   1    -0.291059885001E+03   -0.34995E-01   -0.49702E+00   764   0.367E+00    0.815E-01
RMM:   2    -0.291073724027E+03   -0.13839E-01   -0.10264E-01   765   0.484E-01    0.140E+00
RMM:   3    -0.291033554862E+03    0.40169E-01   -0.15083E-02   770   0.172E-01    0.664E-01
RMM:   4    -0.291029625249E+03    0.39296E-02   -0.51523E-03   788   0.926E-02    0.267E-01
RMM:   5    -0.291031971354E+03   -0.23461E-02   -0.18589E-03   820   0.594E-02    0.318E-01
RMM:   6    -0.291031902827E+03    0.68527E-04   -0.98172E-04   757   0.535E-02    0.821E-02
RMM:   7    -0.291031983243E+03   -0.80416E-04   -0.10674E-04   744   0.206E-02    0.946E-02
RMM:   8    -0.291031892961E+03    0.90282E-04   -0.17772E-04   740   0.157E-02    0.194E-02
RMM:   9    -0.291031908257E+03   -0.15296E-04   -0.20990E-05   697   0.774E-03    0.277E-02
RMM:  10    -0.291031908028E+03    0.22917E-06   -0.66360E-06   573   0.459E-03
  20 F= -.29100832E+03 E0= -.29100737E+03  d E =-.673011E-02  mag=    -0.0022
 trial-energy change:   -0.006730  1 .order   -0.116425   -0.177379   -0.055470
 step:   1.0651(harm=  1.0651)  dis= 0.02083  next Energy=  -291.130630 (dE=-0.129E+00)
 bond charge predicted
       N       E                     dE             d eps       ncg     rms          rms(c)
RMM:   1    -0.291038852266E+03   -0.69440E-02   -0.10381E+00   764   0.168E+00    0.218E-01
RMM:   2    -0.291033577838E+03    0.52744E-02   -0.13346E-02   764   0.199E-01    0.338E-01
RMM:   3    -0.291032225742E+03    0.13521E-02   -0.16834E-03   878   0.548E-02    0.142E-01
RMM:   4    -0.291032551272E+03   -0.32553E-03   -0.22061E-04   776   0.242E-02    0.117E-01
RMM:   5    -0.291032784865E+03   -0.23359E-03   -0.22713E-04   757   0.258E-02    0.103E-01
RMM:   6    -0.291032775892E+03    0.89727E-05   -0.60676E-05   702   0.126E-02    0.668E-02
RMM:   7    -0.291032847631E+03   -0.71739E-04   -0.61719E-05   721   0.117E-02    0.759E-02
RMM:   8    -0.291032519372E+03    0.32826E-03   -0.26394E-04   756   0.300E-02    0.604E-02
RMM:   9    -0.291032486583E+03    0.32789E-04   -0.29167E-04   761   0.240E-02    0.490E-02
RMM:  10    -0.291032619708E+03   -0.13313E-03   -0.27004E-04   756   0.357E-02    0.457E-02
RMM:  11    -0.291032677884E+03   -0.58175E-04   -0.38350E-05   685   0.165E-02    0.157E-02
RMM:  12    -0.291032661670E+03    0.16213E-04   -0.26892E-05   645   0.816E-03    0.754E-03
RMM:  13    -0.291032685590E+03   -0.23920E-04   -0.29080E-06   527   0.555E-03    0.141E-03
RMM:  14    -0.291032686087E+03   -0.49687E-06   -0.55908E-07   452   0.146E-03
  21 F= -.29100893E+03 E0= -.29100797E+03  d E =-.734397E-02  mag=    -0.0000
 curvature:  -1.64 expect dE=-0.502E+00 dE for cont linesearch -0.415E-04
 trial: gam= 1.06124 g(F)=  0.307E+00 g(S)=  0.000E+00 ort =-0.435E-02 (trialstep = 0.523E+00)
 search vector abs. value=  0.114E+01
 bond charge predicted
       N       E                     dE             d eps       ncg     rms          rms(c)
RMM:   1    -0.291068440975E+03   -0.35755E-01   -0.46302E+00   764   0.352E+00    0.828E-01
RMM:   2    -0.291087824642E+03   -0.19384E-01   -0.10609E-01   765   0.500E-01    0.151E+00
RMM:   3    -0.291042846899E+03    0.44978E-01   -0.13834E-02   764   0.165E-01    0.784E-01
RMM:   4    -0.291036907628E+03    0.59393E-02   -0.61587E-03   788   0.990E-02    0.284E-01
RMM:   5    -0.291040162713E+03   -0.32551E-02   -0.27166E-03   798   0.710E-02    0.508E-01
RMM:   6    -0.291038863136E+03    0.12996E-02   -0.95785E-04   760   0.537E-02    0.730E-02
RMM:   7    -0.291039120509E+03   -0.25737E-03   -0.10414E-04   746   0.236E-02    0.658E-02
RMM:   8    -0.291039091257E+03    0.29252E-04   -0.15741E-04   714   0.147E-02    0.277E-02
RMM:   9    -0.291039100260E+03   -0.90030E-05   -0.19274E-05   684   0.760E-03    0.404E-02
RMM:  10    -0.291039083480E+03    0.16780E-04   -0.12576E-05   679   0.566E-03    0.982E-03
RMM:  11    -0.291039087321E+03   -0.38406E-05   -0.17331E-06   514   0.292E-03    0.759E-03
RMM:  12    -0.291039085157E+03    0.21644E-05   -0.11891E-06   497   0.238E-03    0.502E-03
RMM:  13    -0.291039085124E+03    0.32524E-07   -0.13901E-06   491   0.205E-03
  22 F= -.29101620E+03 E0= -.29101510E+03  d E =-.727195E-02  mag=    -0.0001
 trial-energy change:   -0.007272  1 .order   -0.121764   -0.158260   -0.085269
 step:   1.1345(harm=  1.1345)  dis= 0.02737  next Energy=  -291.180499 (dE=-0.172E+00)
 bond charge predicted
       N       E                     dE             d eps       ncg     rms          rms(c)
RMM:   1    -0.291070741939E+03   -0.31657E-01   -0.62444E+00   764   0.408E+00    0.133E+00
RMM:   2    -0.291156574543E+03   -0.85833E-01   -0.21734E-01   764   0.662E-01    0.214E+00
RMM:   3    -0.291052280858E+03    0.10429E+00   -0.32278E-02   760   0.247E-01    0.120E+00
RMM:   4    -0.291033575112E+03    0.18706E-01   -0.14747E-02   782   0.149E-01    0.555E-01
RMM:   5    -0.291033409819E+03    0.16529E-03   -0.48452E-03   834   0.858E-02    0.302E-01
RMM:   6    -0.291035292000E+03   -0.18822E-02   -0.22640E-03   774   0.772E-02    0.190E-01
RMM:   7    -0.291035333905E+03   -0.41905E-04   -0.22269E-04   776   0.266E-02    0.222E-01
RMM:   8    -0.291034945331E+03    0.38857E-03   -0.35571E-04   768   0.222E-02    0.290E-02
RMM:   9    -0.291035054025E+03   -0.10869E-03   -0.46176E-05   688   0.134E-02    0.400E-02
RMM:  10    -0.291035049136E+03    0.48892E-05   -0.10669E-05   659   0.662E-03    0.260E-02
RMM:  11    -0.291035041553E+03    0.75825E-05   -0.18908E-06   508   0.368E-03    0.231E-02
RMM:  12    -0.291035022300E+03    0.19253E-04   -0.20117E-05   670   0.740E-03    0.254E-02
RMM:  13    -0.291035037982E+03   -0.15682E-04   -0.34268E-06   541   0.499E-03    0.771E-03
RMM:  14    -0.291035037847E+03    0.13524E-06   -0.15535E-06   496   0.216E-03
  23 F= -.29101313E+03 E0= -.29101184E+03  d E =-.420261E-02  mag=     0.0000
 curvature:  -2.13 expect dE=-0.590E+00 dE for cont linesearch -0.705E-03
 trial: gam= 0.95712 g(F)=  0.277E+00 g(S)=  0.000E+00 ort =-0.194E-01 (trialstep = 0.573E+00)
 search vector abs. value=  0.128E+01
 bond charge predicted
       N       E                     dE             d eps       ncg     rms          rms(c)
RMM:   1    -0.291085793277E+03   -0.50755E-01   -0.89243E+00   764   0.498E+00    0.208E+00
RMM:   2    -0.291319063344E+03   -0.23327E+00   -0.47656E-01   764   0.874E-01    0.296E+00
RMM:   3    -0.291096260173E+03    0.22280E+00   -0.74376E-02   756   0.368E-01    0.174E+00
RMM:   4    -0.291047955414E+03    0.48305E-01   -0.35931E-02   782   0.222E-01    0.920E-01
RMM:   5    -0.291040469628E+03    0.74858E-02   -0.91524E-03   845   0.121E-01    0.480E-01
RMM:   6    -0.291042695209E+03   -0.22256E-02   -0.54306E-03   778   0.107E-01    0.317E-01
RMM:   7    -0.291045517897E+03   -0.28227E-02   -0.13970E-03   785   0.601E-02    0.774E-01
RMM:   8    -0.291041982229E+03    0.35357E-02   -0.26177E-04   756   0.302E-02    0.290E-01
RMM:   9    -0.291042218498E+03   -0.23627E-03   -0.36590E-04   759   0.276E-02    0.448E-02
RMM:  10    -0.291042527725E+03   -0.30923E-03   -0.10782E-04   730   0.208E-02    0.596E-02
RMM:  11    -0.291042516925E+03    0.10800E-04   -0.33595E-05   712   0.969E-03    0.488E-02
RMM:  12    -0.291042517527E+03   -0.60131E-06   -0.43181E-06   576   0.563E-03
  24 F= -.29101948E+03 E0= -.29101789E+03  d E =-.635197E-02  mag=    -0.0000
 trial-energy change:   -0.006352  1 .order   -0.078722   -0.148039   -0.009405
 step:   0.6114(harm=  0.6114)  dis= 0.01530  next Energy=  -291.092173 (dE=-0.790E-01)
 bond charge predicted
       N       E                     dE             d eps       ncg     rms          rms(c)
RMM:   1    -0.291041778342E+03    0.73858E-03   -0.42484E-02   764   0.339E-01    0.629E-02
RMM:   2    -0.291041795926E+03   -0.17585E-04   -0.66994E-04   752   0.418E-02    0.176E-01
RMM:   3    -0.291041467802E+03    0.32812E-03   -0.97858E-05   700   0.163E-02    0.344E-02
RMM:   4    -0.291041516424E+03   -0.48622E-04   -0.24599E-05   690   0.959E-03    0.224E-02
RMM:   5    -0.291041532764E+03   -0.16340E-04   -0.96503E-06   629   0.629E-03    0.229E-02
RMM:   6    -0.291041528476E+03    0.42875E-05   -0.19265E-06   514   0.353E-03    0.218E-02
RMM:   7    -0.291041515160E+03    0.13316E-04   -0.70545E-06   575   0.503E-03    0.925E-03
RMM:   8    -0.291041524635E+03   -0.94747E-05   -0.21656E-06   511   0.332E-03    0.426E-03
RMM:   9    -0.291041526861E+03   -0.22261E-05   -0.83918E-07   457   0.191E-03    0.178E-03
RMM:  10    -0.291041527361E+03   -0.50056E-06   -0.38711E-07   412   0.140E-03
  25 F= -.29101851E+03 E0= -.29101711E+03  d E =-.537845E-02  mag=    -0.0000
 curvature:  -1.51 expect dE=-0.239E+00 dE for cont linesearch -0.124E-06
 trial: gam= 0.45014 g(F)=  0.158E+00 g(S)=  0.000E+00 ort = 0.324E-03 (trialstep = 0.580E+00)
 search vector abs. value=  0.418E+00
 bond charge predicted
       N       E                     dE             d eps       ncg     rms          rms(c)
RMM:   1    -0.291067866330E+03   -0.26339E-01   -0.34962E+00   764   0.303E+00    0.523E-01
RMM:   2    -0.291063375981E+03    0.44903E-02   -0.56754E-02   766   0.400E-01    0.107E+00
RMM:   3    -0.291045243642E+03    0.18132E-01   -0.52494E-03   782   0.107E-01    0.536E-01
RMM:   4    -0.291044990275E+03    0.25337E-03   -0.41013E-03   764   0.825E-02    0.433E-01
RMM:   5    -0.291045491126E+03   -0.50085E-03   -0.11157E-03   766   0.609E-02    0.278E-01
RMM:   6    -0.291045133988E+03    0.35714E-03   -0.32389E-04   758   0.286E-02    0.561E-02
RMM:   7    -0.291045277534E+03   -0.14355E-03   -0.44495E-05   696   0.164E-02    0.454E-02
RMM:   8    -0.291045273905E+03    0.36288E-05   -0.54222E-05   695   0.103E-02    0.359E-02
RMM:   9    -0.291045266965E+03    0.69404E-05   -0.18772E-05   690   0.768E-03    0.250E-02
RMM:  10    -0.291045263323E+03    0.36424E-05   -0.27175E-06   528   0.341E-03    0.779E-03
RMM:  11    -0.291045265186E+03   -0.18636E-05   -0.65438E-07   479   0.211E-03    0.431E-03
RMM:  12    -0.291045265773E+03   -0.58692E-06   -0.18171E-07   454   0.124E-03
  26 F= -.29102306E+03 E0= -.29102140E+03  d E =-.454983E-02  mag=     0.0001
 trial-energy change:   -0.004550  1 .order   -0.074301   -0.091830   -0.056773
 step:   1.5202(harm=  1.5202)  dis= 0.01860  next Energy=  -291.138783 (dE=-0.120E+00)
 bond charge predicted
       N       E                     dE             d eps       ncg     rms          rms(c)
RMM:   1    -0.291064424592E+03   -0.19159E-01   -0.88448E+00   764   0.484E+00    0.227E+00
RMM:   2    -0.291355845712E+03   -0.29142E+00   -0.55063E-01   762   0.968E-01    0.316E+00
RMM:   3    -0.291093987171E+03    0.26186E+00   -0.85600E-02   757   0.396E-01    0.190E+00
RMM:   4    -0.291035431183E+03    0.58556E-01   -0.43077E-02   784   0.252E-01    0.107E+00
RMM:   5    -0.291023605028E+03    0.11826E-01   -0.11822E-02   823   0.132E-01    0.580E-01
RMM:   6    -0.291025413383E+03   -0.18084E-02   -0.64772E-03   774   0.111E-01    0.332E-01
RMM:   7    -0.291030736558E+03   -0.53232E-02   -0.21605E-03   782   0.719E-02    0.112E+00
RMM:   8    -0.291024624545E+03    0.61120E-02   -0.30905E-04   761   0.383E-02    0.467E-01
RMM:   9    -0.291025321998E+03   -0.69745E-03   -0.13345E-04   738   0.215E-02    0.280E-01
RMM:  10    -0.291025432756E+03   -0.11076E-03   -0.90031E-05   756   0.185E-02    0.117E-01
RMM:  11    -0.291025839933E+03   -0.40718E-03   -0.31456E-04   754   0.238E-02    0.156E-01
RMM:  12    -0.291025635550E+03    0.20438E-03   -0.74770E-05   754   0.171E-02    0.355E-02
RMM:  13    -0.291025657650E+03   -0.22101E-04   -0.22389E-05   699   0.787E-03    0.432E-02
RMM:  14    -0.291025653395E+03    0.42553E-05   -0.70691E-06   618   0.593E-03    0.917E-03
RMM:  15    -0.291025656369E+03   -0.29737E-05   -0.85690E-07   487   0.257E-03    0.859E-03
RMM:  16    -0.291025655971E+03    0.39819E-06   -0.38055E-07   477   0.143E-03
  27 F= -.29100474E+03 E0= -.29100259E+03  d E =0.137693E-01  mag=     0.0000
 curvature:  -2.01 expect dE=-0.537E+00 dE for cont linesearch -0.645E-04
 trial: gam= 1.72968 g(F)=  0.268E+00 g(S)=  0.000E+00 ort =-0.367E-02 (trialstep = 0.213E+00)
 search vector abs. value=  0.151E+01
 bond charge predicted
       N       E                     dE             d eps       ncg     rms          rms(c)
RMM:   1    -0.291045786015E+03   -0.20130E-01   -0.19443E+00   764   0.223E+00    0.306E-01
RMM:   2    -0.291036360933E+03    0.94251E-02   -0.22990E-02   770   0.258E-01    0.553E-01
RMM:   3    -0.291032643855E+03    0.37171E-02   -0.19936E-03   831   0.643E-02    0.232E-01
RMM:   4    -0.291033541478E+03   -0.89762E-03   -0.99164E-04   758   0.453E-02    0.261E-01
RMM:   5    -0.291033373344E+03    0.16813E-03   -0.50271E-04   756   0.375E-02    0.729E-02
RMM:   6    -0.291033418128E+03   -0.44784E-04   -0.71132E-05   710   0.147E-02    0.234E-02
RMM:   7    -0.291033436702E+03   -0.18575E-04   -0.13893E-05   687   0.703E-03    0.315E-02
RMM:   8    -0.291033431499E+03    0.52030E-05   -0.12599E-05   674   0.499E-03    0.182E-02
RMM:   9    -0.291033434335E+03   -0.28357E-05   -0.15219E-06   500   0.301E-03    0.196E-02
RMM:  10    -0.291033425161E+03    0.91737E-05   -0.56405E-06   562   0.434E-03    0.113E-02
RMM:  11    -0.291033429678E+03   -0.45164E-05   -0.16939E-06   489   0.271E-03    0.297E-03
RMM:  12    -0.291033432678E+03   -0.30003E-05   -0.53491E-07   455   0.191E-03    0.202E-03
RMM:  13    -0.291033432745E+03   -0.66510E-07   -0.15760E-07   400   0.100E-03
  28 F= -.29101176E+03 E0= -.29100953E+03  d E =-.702123E-02  mag=     0.0000
 trial-energy change:   -0.007021  1 .order   -0.046991   -0.055743   -0.038239
 step:   0.6792(harm=  0.6792)  dis= 0.01566  next Energy=  -291.093498 (dE=-0.888E-01)
 bond charge predicted
       N       E                     dE             d eps       ncg     rms          rms(c)
RMM:   1    -0.291066412362E+03   -0.32980E-01   -0.90342E+00   764   0.491E+00    0.184E+00
RMM:   2    -0.291236819112E+03   -0.17041E+00   -0.37224E-01   766   0.816E-01    0.260E+00
RMM:   3    -0.291061765668E+03    0.17505E+00   -0.57223E-02   756   0.320E-01    0.153E+00
RMM:   4    -0.291025410175E+03    0.36355E-01   -0.25874E-02   780   0.192E-01    0.849E-01
RMM:   5    -0.291019095250E+03    0.63149E-02   -0.75507E-03   832   0.106E-01    0.410E-01
RMM:   6    -0.291022878903E+03   -0.37837E-02   -0.53025E-03   770   0.109E-01    0.511E-01
RMM:   7    -0.291023189238E+03   -0.31033E-03   -0.73103E-04   788   0.510E-02    0.596E-01
RMM:   8    -0.291020984844E+03    0.22044E-02   -0.42929E-04   756   0.279E-02    0.599E-02
RMM:   9    -0.291021705116E+03   -0.72027E-03   -0.20343E-04   760   0.261E-02    0.100E-01
RMM:  10    -0.291021653562E+03    0.51554E-04   -0.38502E-05   724   0.133E-02    0.277E-02
RMM:  11    -0.291021673986E+03   -0.20423E-04   -0.19260E-05   691   0.676E-03    0.441E-02
RMM:  12    -0.291021691387E+03   -0.17401E-04   -0.75492E-06   650   0.580E-03    0.689E-02
RMM:  13    -0.291021650916E+03    0.40470E-04   -0.11019E-05   674   0.555E-03    0.210E-02
RMM:  14    -0.291021659881E+03   -0.89644E-05   -0.25185E-06   532   0.424E-03    0.696E-03
RMM:  15    -0.291021661912E+03   -0.20309E-05   -0.85615E-07   478   0.223E-03    0.321E-03
RMM:  16    -0.291021662498E+03   -0.58668E-06   -0.35127E-07   456   0.147E-03
  29 F= -.29099830E+03 E0= -.29099596E+03  d E =0.644249E-02  mag=    -0.0000
 curvature:  -1.96 expect dE=-0.364E+00 dE for cont linesearch -0.124E-05
 trial: gam= 0.59281 g(F)=  0.186E+00 g(S)=  0.000E+00 ort = 0.977E-03 (trialstep = 0.306E+00)
 search vector abs. value=  0.716E+00
 bond charge predicted
       N       E                     dE             d eps       ncg     rms          rms(c)
RMM:   1    -0.291035852853E+03   -0.14191E-01   -0.17241E+00   766   0.207E+00    0.278E-01
RMM:   2    -0.291024481859E+03    0.11371E-01   -0.19885E-02   767   0.250E-01    0.385E-01
RMM:   3    -0.291022779649E+03    0.17022E-02   -0.16367E-03   840   0.545E-02    0.194E-01
RMM:   4    -0.291023568203E+03   -0.78855E-03   -0.52823E-04   772   0.386E-02    0.147E-01
RMM:   5    -0.291023745259E+03   -0.17706E-03   -0.24952E-04   756   0.281E-02    0.119E-01
RMM:   6    -0.291023654664E+03    0.90595E-04   -0.70800E-05   706   0.133E-02    0.213E-02
RMM:   7    -0.291023685958E+03   -0.31294E-04   -0.11610E-05   679   0.771E-03    0.151E-02
RMM:   8    -0.291023687277E+03   -0.13185E-05   -0.30717E-06   527   0.272E-03    0.181E-02
RMM:   9    -0.291023681632E+03    0.56443E-05   -0.15952E-06   502   0.283E-03    0.144E-02
RMM:  10    -0.291023680892E+03    0.74061E-06   -0.34776E-06   527   0.313E-03
  30 F= -.29100039E+03 E0= -.29099789E+03  d E =-.208965E-02  mag=     0.0000
 ZBRENT: can't locate minimum, use default step
 trial-energy change:   -0.002090  1 .order   -0.051380   -0.057172   -0.045588
 step:   1.2260(harm=  1.5126)  dis= 0.01904  next Energy=  -291.139382 (dE=-0.141E+00)
 bond charge predicted
       N       E                     dE             d eps       ncg     rms          rms(c)
RMM:   1    -0.291030315230E+03   -0.66336E-02   -0.12745E+01   764   0.594E+00    0.388E+00
RMM:   2    -0.291781879353E+03   -0.75156E+00   -0.14462E+00   766   0.145E+00    0.435E+00
RMM:   3    -0.291190973455E+03    0.59091E+00   -0.22918E-01   762   0.664E-01    0.260E+00
RMM:   4    -0.291053854227E+03    0.13712E+00   -0.11089E-01   775   0.399E-01    0.150E+00
RMM:   5    -0.291017127055E+03    0.36727E-01   -0.32118E-02   817   0.210E-01    0.974E-01
RMM:   6    -0.291010096381E+03    0.70307E-02   -0.96837E-03   792   0.137E-01    0.629E-01
RMM:   7    -0.291049750657E+03   -0.39654E-01   -0.14848E-02   758   0.150E-01    0.424E+00
RMM:   8    -0.291003568303E+03    0.46182E-01   -0.17895E-03   772   0.114E-01    0.185E+00
RMM:   9    -0.291001507652E+03    0.20607E-02   -0.17524E-03   756   0.604E-02    0.236E-01
RMM:  10    -0.291008868200E+03   -0.73605E-02   -0.66738E-04   764   0.580E-02    0.729E-02
RMM:  11    -0.291009754375E+03   -0.88617E-03   -0.87818E-05   746   0.261E-02    0.537E-02
RMM:  12    -0.291009786666E+03   -0.32292E-04   -0.14880E-05   688   0.603E-03    0.820E-02
RMM:  13    -0.291009806208E+03   -0.19541E-04   -0.48704E-06   570   0.432E-03    0.109E-01
RMM:  14    -0.291009716860E+03    0.89347E-04   -0.15829E-05   666   0.572E-03    0.193E-02
RMM:  15    -0.291009750282E+03   -0.33422E-04   -0.34045E-06   556   0.498E-03    0.248E-02
RMM:  16    -0.291009748343E+03    0.19389E-05   -0.10496E-06   488   0.200E-03    0.918E-03
RMM:  17    -0.291009750911E+03   -0.25677E-05   -0.13220E-06   495   0.206E-03    0.104E-02
RMM:  18    -0.291009751862E+03   -0.95135E-06   -0.44497E-07   470   0.177E-03
  31 F= -.29098667E+03 E0= -.29098371E+03  d E =0.116318E-01  mag=    -0.0000
 curvature:  -2.74 expect dE=-0.488E+00 dE for cont linesearch -0.160E-02
 trial: gam= 0.72092 g(F)=  0.178E+00 g(S)=  0.000E+00 ort = 0.205E-01 (trialstep = 0.490E+00)
 search vector abs. value=  0.580E+00
 bond charge predicted
       N       E                     dE             d eps       ncg     rms          rms(c)
RMM:   1    -0.291033002656E+03   -0.23252E-01   -0.33362E+00   764   0.295E+00    0.458E-01
RMM:   2    -0.291018527451E+03    0.14475E-01   -0.42646E-02   770   0.341E-01    0.746E-01
RMM:   3    -0.291009652726E+03    0.88747E-02   -0.39204E-03   796   0.875E-02    0.316E-01
RMM:   4    -0.291011468784E+03   -0.18161E-02   -0.22548E-03   765   0.663E-02    0.508E-01
RMM:   5    -0.291010577703E+03    0.89108E-03   -0.12644E-03   760   0.565E-02    0.727E-02
RMM:   6    -0.291010875802E+03   -0.29810E-03   -0.14757E-04   756   0.243E-02    0.493E-02
RMM:   7    -0.291010881735E+03   -0.59338E-05   -0.77738E-05   717   0.116E-02    0.472E-02
RMM:   8    -0.291010870579E+03    0.11157E-04   -0.22042E-05   700   0.783E-03    0.184E-02
RMM:   9    -0.291010878106E+03   -0.75273E-05   -0.48221E-06   550   0.399E-03    0.282E-02
RMM:  10    -0.291010871907E+03    0.61992E-05   -0.38448E-06   544   0.415E-03    0.344E-02
RMM:  11    -0.291010868037E+03    0.38700E-05   -0.80293E-06   606   0.444E-03    0.683E-03
RMM:  12    -0.291010873628E+03   -0.55909E-05   -0.14750E-06   493   0.304E-03    0.364E-03
RMM:  13    -0.291010873928E+03   -0.30065E-06   -0.40953E-07   451   0.146E-03
  32 F= -.29098658E+03 E0= -.29098347E+03  d E =0.842452E-04  mag=     0.0000
 trial-energy change:    0.000084  1 .order   -0.062880   -0.094570   -0.031189
 step:   0.7317(harm=  0.7317)  dis= 0.00949  next Energy=  -291.057220 (dE=-0.706E-01)
 bond charge predicted
       N       E                     dE             d eps       ncg     rms          rms(c)
RMM:   1    -0.291010735900E+03    0.13773E-03   -0.80925E-01   764   0.146E+00    0.193E-01
RMM:   2    -0.291005481972E+03    0.52539E-02   -0.90950E-03   768   0.163E-01    0.211E-01
RMM:   3    -0.291005164037E+03    0.31794E-03   -0.76008E-04   839   0.377E-02    0.179E-01
RMM:   4    -0.291005217214E+03   -0.53177E-04   -0.38362E-04   758   0.304E-02    0.672E-02
RMM:   5    -0.291005304808E+03   -0.87594E-04   -0.15339E-04   742   0.197E-02    0.503E-02
RMM:   6    -0.291005289248E+03    0.15560E-04   -0.18513E-05   682   0.745E-03    0.157E-02
RMM:   7    -0.291005293912E+03   -0.46637E-05   -0.13730E-05   672   0.530E-03    0.114E-02
RMM:   8    -0.291005294896E+03   -0.98453E-06   -0.30060E-06   532   0.318E-03
  33 F= -.29098039E+03 E0= -.29097724E+03  d E =0.627701E-02  mag=    -0.0006
 curvature:  -1.10 expect dE=-0.140E+00 dE for cont linesearch -0.860E-08
 trial: gam= 0.74863 g(F)=  0.127E+00 g(S)=  0.000E+00 ort =-0.673E-04 (trialstep = 0.539E+00)
 search vector abs. value=  0.452E+00
 bond charge predicted
       N       E                     dE             d eps       ncg     rms          rms(c)
RMM:   1    -0.291027085581E+03   -0.21792E-01   -0.24252E+00   764   0.248E+00    0.441E-01
RMM:   2    -0.291021034881E+03    0.60507E-02   -0.38152E-02   766   0.335E-01    0.863E-01
RMM:   3    -0.291009189617E+03    0.11845E-01   -0.37010E-03   780   0.876E-02    0.386E-01
RMM:   4    -0.291010824183E+03   -0.16346E-02   -0.26895E-03   770   0.684E-02    0.574E-01
RMM:   5    -0.291009877319E+03    0.94686E-03   -0.62184E-04   756   0.492E-02    0.160E-01
RMM:   6    -0.291010425657E+03   -0.54834E-03   -0.13883E-04   748   0.227E-02    0.253E-01
RMM:   7    -0.291009977113E+03    0.44854E-03   -0.20791E-04   740   0.288E-02    0.198E-01
RMM:   8    -0.291010050079E+03   -0.72966E-04   -0.17007E-04   719   0.200E-02    0.674E-02
RMM:   9    -0.291010175973E+03   -0.12589E-03   -0.36764E-05   704   0.143E-02    0.286E-02
RMM:  10    -0.291010179740E+03   -0.37672E-05   -0.21541E-05   694   0.736E-03    0.387E-02
RMM:  11    -0.291010169066E+03    0.10673E-04   -0.68439E-06   612   0.484E-03    0.917E-03
RMM:  12    -0.291010172693E+03   -0.36269E-05   -0.12390E-06   492   0.275E-03    0.311E-03
RMM:  13    -0.291010173830E+03   -0.11371E-05   -0.37655E-07   453   0.171E-03    0.222E-03
RMM:  14    -0.291010174084E+03   -0.25322E-06   -0.16040E-07   401   0.100E-03
  34 F= -.29098617E+03 E0= -.29098247E+03  d E =-.578100E-02  mag=    -0.0000
 trial-energy change:   -0.005781  1 .order   -0.052723   -0.068512   -0.036934
 step:   1.1686(harm=  1.1686)  dis= 0.01246  next Energy=  -291.054712 (dE=-0.743E-01)
 bond charge predicted
       N       E                     dE             d eps       ncg     rms          rms(c)
RMM:   1    -0.291026580664E+03   -0.16407E-01   -0.33127E+00   764   0.288E+00    0.595E-01
RMM:   2    -0.291027169242E+03   -0.58858E-03   -0.60413E-02   766   0.400E-01    0.113E+00
RMM:   3    -0.291003804855E+03    0.23364E-01   -0.66454E-03   770   0.115E-01    0.581E-01
RMM:   4    -0.291003367855E+03    0.43700E-03   -0.40002E-03   772   0.802E-02    0.547E-01
RMM:   5    -0.291003641430E+03   -0.27358E-03   -0.10759E-03   760   0.611E-02    0.213E-01
RMM:   6    -0.291003681137E+03   -0.39707E-04   -0.26889E-04   758   0.294E-02    0.766E-02
RMM:   7    -0.291003798015E+03   -0.11688E-03   -0.10216E-04   706   0.158E-02    0.788E-02
RMM:   8    -0.291003774220E+03    0.23794E-04   -0.16532E-05   684   0.983E-03    0.584E-02
RMM:   9    -0.291003768291E+03    0.59289E-05   -0.30265E-06   516   0.338E-03    0.550E-02
RMM:  10    -0.291003788599E+03   -0.20308E-04   -0.12588E-05   649   0.513E-03    0.815E-02
RMM:  11    -0.291003740678E+03    0.47921E-04   -0.28684E-05   709   0.852E-03    0.115E-02
RMM:  12    -0.291003757726E+03   -0.17047E-04   -0.82770E-06   603   0.599E-03    0.497E-03
RMM:  13    -0.291003758866E+03   -0.11403E-05   -0.11281E-06   488   0.222E-03    0.454E-03
RMM:  14    -0.291003759088E+03   -0.22206E-06   -0.37712E-07   449   0.132E-03
  35 F= -.29098077E+03 E0= -.29097641E+03  d E =-.376898E-03  mag=     0.0000
 curvature:  -2.08 expect dE=-0.288E+00 dE for cont linesearch -0.246E-05
 trial: gam= 0.92827 g(F)=  0.139E+00 g(S)=  0.000E+00 ort =-0.732E-03 (trialstep = 0.570E+00)
 search vector abs. value=  0.527E+00
 bond charge predicted
       N       E                     dE             d eps       ncg     rms          rms(c)
RMM:   1    -0.291026995698E+03   -0.23237E-01   -0.31836E+00   766   0.289E+00    0.554E-01
RMM:   2    -0.291029579779E+03   -0.25841E-02   -0.53547E-02   768   0.361E-01    0.109E+00
RMM:   3    -0.291008691310E+03    0.20888E-01   -0.62480E-03   780   0.118E-01    0.531E-01
RMM:   4    -0.291009417627E+03   -0.72632E-03   -0.36667E-03   770   0.751E-02    0.692E-01
RMM:   5    -0.291008083392E+03    0.13342E-02   -0.15025E-03   756   0.661E-02    0.107E-01
RMM:   6    -0.291008703111E+03   -0.61972E-03   -0.34998E-04   758   0.345E-02    0.703E-02
RMM:   7    -0.291008753519E+03   -0.50408E-04   -0.90075E-05   711   0.140E-02    0.103E-01
RMM:   8    -0.291008711829E+03    0.41690E-04   -0.18629E-05   682   0.959E-03    0.855E-02
RMM:   9    -0.291008666926E+03    0.44903E-04   -0.17669E-05   680   0.812E-03    0.620E-02
RMM:  10    -0.291008693771E+03   -0.26845E-04   -0.15363E-05   683   0.622E-03    0.693E-02
RMM:  11    -0.291008671838E+03    0.21933E-04   -0.21470E-05   689   0.734E-03    0.816E-03
RMM:  12    -0.291008686035E+03   -0.14197E-04   -0.39302E-06   548   0.477E-03    0.408E-03
RMM:  13    -0.291008687424E+03   -0.13887E-05   -0.76093E-07   477   0.235E-03    0.353E-03
RMM:  14    -0.291008687438E+03   -0.14392E-07   -0.25608E-07   449   0.137E-03
  36 F= -.29098486E+03 E0= -.29098014E+03  d E =-.408858E-02  mag=    -0.0000
 trial-energy change:   -0.004089  1 .order   -0.051522   -0.078792   -0.024252
 step:   0.8235(harm=  0.8235)  dis= 0.00843  next Energy=  -291.037681 (dE=-0.569E-01)
 bond charge predicted
       N       E                     dE             d eps       ncg     rms          rms(c)
RMM:   1    -0.291007129306E+03    0.15581E-02   -0.63046E-01   766   0.129E+00    0.193E-01
RMM:   2    -0.291005467459E+03    0.16618E-02   -0.82596E-03   764   0.153E-01    0.477E-01
RMM:   3    -0.291003066006E+03    0.24015E-02   -0.80850E-04   800   0.449E-02    0.134E-01
RMM:   4    -0.291003471229E+03   -0.40522E-03   -0.33856E-04   752   0.286E-02    0.103E-01
RMM:   5    -0.291003529697E+03   -0.58468E-04   -0.20146E-04   752   0.242E-02    0.283E-02
RMM:   6    -0.291003530400E+03   -0.70302E-06   -0.15337E-05   672   0.707E-03    0.151E-02
RMM:   7    -0.291003532609E+03   -0.22091E-05   -0.86960E-06   602   0.419E-03    0.212E-02
RMM:   8    -0.291003532861E+03   -0.25201E-06   -0.12224E-06   494   0.238E-03
  37 F= -.29097929E+03 E0= -.29097436E+03  d E =0.148083E-02  mag=    -0.0002
 curvature:  -1.57 expect dE=-0.222E+00 dE for cont linesearch -0.155E-09
 trial: gam= 0.88959 g(F)=  0.141E+00 g(S)=  0.000E+00 ort = 0.722E-05 (trialstep = 0.586E+00)
 search vector abs. value=  0.558E+00
 bond charge predicted
       N       E                     dE             d eps       ncg     rms          rms(c)
RMM:   1    -0.291022843079E+03   -0.19310E-01   -0.21884E+00   766   0.237E+00    0.434E-01
RMM:   2    -0.291023707393E+03   -0.86431E-03   -0.36764E-02   774   0.333E-01    0.964E-01
RMM:   3    -0.291009934308E+03    0.13773E-01   -0.39937E-03   790   0.948E-02    0.390E-01
RMM:   4    -0.291012156558E+03   -0.22222E-02   -0.23006E-03   772   0.643E-02    0.708E-01
RMM:   5    -0.291010421494E+03    0.17351E-02   -0.75319E-04   758   0.527E-02    0.149E-01
RMM:   6    -0.291011419011E+03   -0.99752E-03   -0.23723E-04   754   0.309E-02    0.275E-01
RMM:   7    -0.291010702706E+03    0.71631E-03   -0.16848E-04   734   0.300E-02    0.702E-02
RMM:   8    -0.291011032621E+03   -0.32992E-03   -0.65957E-05   697   0.181E-02    0.383E-02
RMM:   9    -0.291011126448E+03   -0.93827E-04   -0.68829E-05   709   0.144E-02    0.553E-02
RMM:  10    -0.291011105011E+03    0.21437E-04   -0.16739E-05   677   0.774E-03    0.168E-02
RMM:  11    -0.291011110245E+03   -0.52337E-05   -0.25662E-06   523   0.368E-03    0.175E-02
RMM:  12    -0.291011109450E+03    0.79464E-06   -0.80147E-07   474   0.192E-03
  38 F= -.29098777E+03 E0= -.29098215E+03  d E =-.848763E-02  mag=    -0.0000
 trial-energy change:   -0.008488  1 .order   -0.057449   -0.082824   -0.032074
 step:   0.9561(harm=  0.9561)  dis= 0.00854  next Energy=  -291.046870 (dE=-0.676E-01)
 bond charge predicted
       N       E                     dE             d eps       ncg     rms          rms(c)
RMM:   1    -0.291014308196E+03   -0.31980E-02   -0.87513E-01   766   0.149E+00    0.250E-01
RMM:   2    -0.291013683529E+03    0.62467E-03   -0.13242E-02   770   0.208E-01    0.673E-01
RMM:   3    -0.291008714274E+03    0.49693E-02   -0.14170E-03   798   0.577E-02    0.181E-01
RMM:   4    -0.291009577702E+03   -0.86343E-03   -0.48676E-04   766   0.351E-02    0.174E-01
RMM:   5    -0.291009684162E+03   -0.10646E-03   -0.26926E-04   756   0.305E-02    0.858E-02
RMM:   6    -0.291009712008E+03   -0.27846E-04   -0.23365E-05   674   0.105E-02    0.109E-01
RMM:   7    -0.291009587377E+03    0.12463E-03   -0.31460E-05   678   0.121E-02    0.284E-02
RMM:   8    -0.291009662416E+03   -0.75039E-04   -0.14370E-05   668   0.857E-03    0.468E-02
RMM:   9    -0.291009670364E+03   -0.79477E-05   -0.26123E-05   684   0.796E-03    0.364E-02
RMM:  10    -0.291009663902E+03    0.64617E-05   -0.49871E-06   565   0.537E-03    0.833E-03
RMM:  11    -0.291009665717E+03   -0.18151E-05   -0.89748E-07   467   0.211E-03    0.314E-03
RMM:  12    -0.291009666432E+03   -0.71511E-06   -0.25332E-07   437   0.139E-03
  39 F= -.29098687E+03 E0= -.29098077E+03  d E =-.758619E-02  mag=     0.0000
 curvature:  -1.89 expect dE=-0.149E+00 dE for cont linesearch -0.918E-08
 trial: gam= 0.44162 g(F)=  0.789E-01 g(S)=  0.000E+00 ort =-0.521E-04 (trialstep = 0.660E+00)
 search vector abs. value=  0.188E+00
 bond charge predicted
       N       E                     dE             d eps       ncg     rms          rms(c)
RMM:   1    -0.291017442817E+03   -0.77771E-02   -0.95444E-01   764   0.158E+00    0.225E-01
RMM:   2    -0.291015369662E+03    0.20732E-02   -0.12504E-02   774   0.204E-01    0.192E-01
RMM:   3    -0.291015635927E+03   -0.26626E-03   -0.16194E-03   897   0.579E-02    0.287E-01
RMM:   4    -0.291015212331E+03    0.42360E-03   -0.47551E-04   772   0.319E-02    0.237E-01
RMM:   5    -0.291015024712E+03    0.18762E-03   -0.53326E-04   756   0.361E-02    0.991E-02
RMM:   6    -0.291015039856E+03   -0.15144E-04   -0.93162E-05   738   0.184E-02    0.373E-02
RMM:   7    -0.291015053271E+03   -0.13415E-04   -0.72911E-06   572   0.532E-03    0.587E-02
RMM:   8    -0.291015018696E+03    0.34574E-04   -0.19902E-05   682   0.797E-03    0.189E-02
RMM:   9    -0.291015038970E+03   -0.20274E-04   -0.67994E-06   605   0.596E-03    0.104E-02
RMM:  10    -0.291015045123E+03   -0.61526E-05   -0.10114E-05   630   0.503E-03    0.354E-03
RMM:  11    -0.291015045007E+03    0.11638E-06   -0.55160E-07   461   0.191E-03
  40 F= -.29099105E+03 E0= -.29098484E+03  d E =-.417286E-02  mag=     0.0000
 trial-energy change:   -0.004173  1 .order   -0.035510   -0.052032   -0.018989
 step:   1.0391(harm=  1.0391)  dis= 0.00593  next Energy=  -291.027839 (dE=-0.410E-01)
 bond charge predicted
       N       E                     dE             d eps       ncg     rms          rms(c)
RMM:   1    -0.291013196813E+03    0.18483E-02   -0.31478E-01   764   0.914E-01    0.128E-01
RMM:   2    -0.291012543844E+03    0.65297E-03   -0.42048E-03   774   0.118E-01    0.149E-01
RMM:   3    -0.291012571502E+03   -0.27658E-04   -0.53136E-04   898   0.326E-02    0.149E-01
RMM:   4    -0.291012431804E+03    0.13970E-03   -0.14580E-04   762   0.204E-02    0.942E-02
RMM:   5    -0.291012410006E+03    0.21798E-04   -0.18948E-04   752   0.211E-02    0.487E-02
RMM:   6    -0.291012408580E+03    0.14254E-05   -0.36403E-05   690   0.105E-02    0.147E-02
RMM:   7    -0.291012410323E+03   -0.17428E-05   -0.80334E-06   623   0.435E-03    0.177E-02
RMM:   8    -0.291012408556E+03    0.17672E-05   -0.92827E-07   490   0.244E-03    0.151E-02
RMM:   9    -0.291012407831E+03    0.72479E-06   -0.10043E-06   485   0.178E-03
  41 F= -.29098766E+03 E0= -.29098140E+03  d E =-.784025E-03  mag=     0.0000
 curvature:  -1.24 expect dE=-0.132E+00 dE for cont linesearch -0.362E-05
 trial: gam= 1.27267 g(F)=  0.107E+00 g(S)=  0.000E+00 ort = 0.742E-03 (trialstep = 0.335E+00)
 search vector abs. value=  0.413E+00
 bond charge predicted
       N       E                     dE             d eps       ncg     rms          rms(c)
RMM:   1    -0.291021467296E+03   -0.90587E-02   -0.46042E-01   762   0.112E+00    0.163E-01
RMM:   2    -0.291020839613E+03    0.62768E-03   -0.79198E-03   774   0.183E-01    0.156E-01
RMM:   3    -0.291021062301E+03   -0.22269E-03   -0.10222E-03   870   0.451E-02    0.235E-01
RMM:   4    -0.291020736161E+03    0.32614E-03   -0.25307E-04   758   0.254E-02    0.128E-01
RMM:   5    -0.291020746452E+03   -0.10291E-04   -0.21030E-04   750   0.233E-02    0.665E-02
RMM:   6    -0.291020780991E+03   -0.34538E-04   -0.81153E-05   720   0.157E-02    0.924E-02
RMM:   7    -0.291020712132E+03    0.68858E-04   -0.21351E-05   674   0.117E-02    0.312E-02
RMM:   8    -0.291020741189E+03   -0.29057E-04   -0.19363E-05   683   0.744E-03    0.200E-02
RMM:   9    -0.291020752175E+03   -0.10986E-04   -0.50656E-06   572   0.502E-03    0.732E-03
RMM:  10    -0.291020754009E+03   -0.18339E-05   -0.34140E-06   522   0.323E-03    0.329E-03
RMM:  11    -0.291020754077E+03   -0.67776E-07   -0.54916E-07   451   0.174E-03
  42 F= -.29099624E+03 E0= -.29098971E+03  d E =-.858101E-02  mag=    -0.0000
 trial-energy change:   -0.008581  1 .order   -0.029490   -0.036046   -0.022934
 step:   0.9200(harm=  0.9200)  dis= 0.00984  next Energy=  -291.037202 (dE=-0.495E-01)
 bond charge predicted
       N       E                     dE             d eps       ncg     rms          rms(c)
RMM:   1    -0.291024783837E+03   -0.40298E-02   -0.14112E+00   762   0.194E+00    0.288E-01
RMM:   2    -0.291022854019E+03    0.19298E-02   -0.24523E-02   776   0.321E-01    0.222E-01
RMM:   3    -0.291022820406E+03    0.33613E-04   -0.31184E-03   908   0.799E-02    0.191E-01
RMM:   4    -0.291023541675E+03   -0.72127E-03   -0.71039E-04   786   0.370E-02    0.394E-01
RMM:   5    -0.291022367927E+03    0.11737E-02   -0.44031E-04   752   0.326E-02    0.917E-02
RMM:   6    -0.291022652938E+03   -0.28501E-03   -0.26522E-04   762   0.284E-02    0.337E-02
RMM:   7    -0.291022668677E+03   -0.15740E-04   -0.30773E-05   686   0.103E-02    0.669E-02
RMM:   8    -0.291022637116E+03    0.31561E-04   -0.72902E-06   597   0.713E-03    0.383E-02
RMM:   9    -0.291022637361E+03   -0.24489E-06   -0.10599E-05   637   0.478E-03    0.148E-02
RMM:  10    -0.291022652618E+03   -0.15256E-04   -0.10895E-05   634   0.590E-03    0.107E-02
RMM:  11    -0.291022652936E+03   -0.31874E-06   -0.12348E-06   491   0.251E-03
  43 F= -.29099847E+03 E0= -.29099148E+03  d E =-.108146E-01  mag=     0.0000
 curvature:  -1.76 expect dE=-0.149E+00 dE for cont linesearch -0.441E-04
 trial: gam= 0.76493 g(F)=  0.844E-01 g(S)=  0.000E+00 ort =-0.321E-02 (trialstep = 0.452E+00)
 search vector abs. value=  0.321E+00
 bond charge predicted
       N       E                     dE             d eps       ncg     rms          rms(c)
RMM:   1    -0.291030783247E+03   -0.81306E-02   -0.75013E-01   764   0.143E+00    0.206E-01
RMM:   2    -0.291030797158E+03   -0.13911E-04   -0.11038E-02   790   0.183E-01    0.542E-01
RMM:   3    -0.291028335725E+03    0.24614E-02   -0.18395E-03   892   0.596E-02    0.151E-01
RMM:   4    -0.291028745903E+03   -0.41018E-03   -0.23127E-04   773   0.296E-02    0.113E-01
RMM:   5    -0.291028852358E+03   -0.10645E-03   -0.36193E-04   756   0.290E-02    0.559E-02
RMM:   6    -0.291028869370E+03   -0.17012E-04   -0.63808E-05   710   0.133E-02    0.826E-02
RMM:   7    -0.291028822541E+03    0.46829E-04   -0.15452E-05   664   0.974E-03    0.357E-02
RMM:   8    -0.291028836171E+03   -0.13631E-04   -0.21976E-05   696   0.698E-03    0.251E-02
RMM:   9    -0.291028844076E+03   -0.79049E-05   -0.53636E-06   574   0.497E-03    0.834E-03
RMM:  10    -0.291028846643E+03   -0.25663E-05   -0.40039E-06   537   0.346E-03    0.349E-03
RMM:  11    -0.291028846550E+03    0.92135E-07   -0.61861E-07   459   0.182E-03
  44 F= -.29100405E+03 E0= -.29099681E+03  d E =-.557654E-02  mag=    -0.0000
 trial-energy change:   -0.005577  1 .order   -0.030686   -0.037021   -0.024351
 step:   1.3200(harm=  1.3200)  dis= 0.01703  next Energy=  -291.052558 (dE=-0.541E-01)
 bond charge predicted
       N       E                     dE             d eps       ncg     rms          rms(c)
RMM:   1    -0.291033579681E+03   -0.47330E-02   -0.27684E+00   764   0.278E+00    0.452E-01
RMM:   2    -0.291041026159E+03   -0.74465E-02   -0.45427E-02   792   0.364E-01    0.106E+00
RMM:   3    -0.291025123280E+03    0.15903E-01   -0.73951E-03   830   0.120E-01    0.349E-01
RMM:   4    -0.291026937133E+03   -0.18139E-02   -0.15519E-03   818   0.584E-02    0.601E-01
RMM:   5    -0.291027789062E+03   -0.85193E-03   -0.18748E-03   758   0.657E-02    0.557E-01
RMM:   6    -0.291026710282E+03    0.10788E-02   -0.58315E-04   756   0.474E-02    0.360E-01
RMM:   7    -0.291026052854E+03    0.65743E-03   -0.13749E-04   747   0.166E-02    0.149E-01
RMM:   8    -0.291026271721E+03   -0.21887E-03   -0.30032E-05   686   0.145E-02    0.109E-01
RMM:   9    -0.291026288317E+03   -0.16595E-04   -0.30832E-05   702   0.843E-03    0.339E-02
RMM:  10    -0.291026346005E+03   -0.57689E-04   -0.27623E-05   715   0.102E-02    0.324E-02
RMM:  11    -0.291026346137E+03   -0.13204E-06   -0.70831E-06   599   0.454E-03
  45 F= -.29100032E+03 E0= -.29099272E+03  d E =-.184509E-02  mag=    -0.0001
 curvature:  -2.59 expect dE=-0.315E+00 dE for cont linesearch -0.418E-04
 trial: gam= 1.27773 g(F)=  0.122E+00 g(S)=  0.000E+00 ort = 0.228E-02 (trialstep = 0.308E+00)
 search vector abs. value=  0.652E+00
 bond charge predicted
       N       E                     dE             d eps       ncg     rms          rms(c)
RMM:   1    -0.291038671738E+03   -0.12326E-01   -0.78699E-01   764   0.146E+00    0.277E-01
RMM:   2    -0.291043774939E+03   -0.51032E-02   -0.15531E-02   794   0.226E-01    0.923E-01
RMM:   3    -0.291034711891E+03    0.90630E-02   -0.23319E-03   792   0.713E-02    0.227E-01
RMM:   4    -0.291035894393E+03   -0.11825E-02   -0.77501E-04   784   0.422E-02    0.323E-01
RMM:   5    -0.291036133160E+03   -0.23877E-03   -0.44766E-04   756   0.378E-02    0.287E-01
RMM:   6    -0.291036040270E+03    0.92890E-04   -0.44042E-05   686   0.205E-02    0.260E-01
RMM:   7    -0.291035679951E+03    0.36032E-03   -0.11396E-04   708   0.198E-02    0.200E-01
RMM:   8    -0.291035719875E+03   -0.39924E-04   -0.42623E-05   685   0.139E-02    0.482E-02
RMM:   9    -0.291035832667E+03   -0.11279E-03   -0.30870E-05   694   0.114E-02    0.991E-03
RMM:  10    -0.291035851922E+03   -0.19255E-04   -0.64984E-06   607   0.586E-03    0.583E-03
RMM:  11    -0.291035852708E+03   -0.78529E-06   -0.11143E-06   489   0.239E-03
  46 F= -.29101059E+03 E0= -.29100256E+03  d E =-.102779E-01  mag=    -0.0001
 trial-energy change:   -0.010278  1 .order   -0.030473   -0.038433   -0.022514
 step:   0.7436(harm=  0.7436)  dis= 0.01555  next Energy=  -291.046709 (dE=-0.464E-01)
 bond charge predicted
       N       E                     dE             d eps       ncg     rms          rms(c)
RMM:   1    -0.291043607702E+03   -0.77558E-02   -0.15751E+00   764   0.204E+00    0.425E-01
RMM:   2    -0.291057070575E+03   -0.13463E-01   -0.33640E-02   798   0.321E-01    0.120E+00
RMM:   3    -0.291037025435E+03    0.20045E-01   -0.50825E-03   782   0.102E-01    0.447E-01
RMM:   4    -0.291040622554E+03   -0.35971E-02   -0.25493E-03   786   0.664E-02    0.108E+00
RMM:   5    -0.291036465671E+03    0.41569E-02   -0.72500E-04   756   0.595E-02    0.216E-01
RMM:   6    -0.291038233104E+03   -0.17674E-02   -0.13726E-04   707   0.277E-02    0.408E-01
RMM:   7    -0.291037586808E+03    0.64630E-03   -0.42637E-04   756   0.383E-02    0.279E-01
RMM:   8    -0.291037976276E+03   -0.38947E-03   -0.10502E-04   710   0.268E-02    0.636E-02
RMM:   9    -0.291038094293E+03   -0.11802E-03   -0.28435E-05   693   0.112E-02    0.358E-02
RMM:  10    -0.291038105866E+03   -0.11574E-04   -0.15400E-05   670   0.644E-03    0.152E-02
RMM:  11    -0.291038113541E+03   -0.76748E-05   -0.18016E-06   502   0.343E-03    0.225E-02
RMM:  12    -0.291038111781E+03    0.17603E-05   -0.73372E-07   473   0.168E-03    0.752E-03
RMM:  13    -0.291038113491E+03   -0.17101E-05   -0.34463E-07   451   0.145E-03    0.218E-03
RMM:  14    -0.291038114161E+03   -0.66985E-06   -0.11225E-07   391   0.983E-04
  47 F= -.29101391E+03 E0= -.29100520E+03  d E =-.135916E-01  mag=    -0.0000
 curvature:  -1.94 expect dE=-0.143E+00 dE for cont linesearch -0.124E-05
 trial: gam= 0.62809 g(F)=  0.737E-01 g(S)=  0.000E+00 ort =-0.645E-03 (trialstep = 0.395E+00)
 search vector abs. value=  0.330E+00
 bond charge predicted
       N       E                     dE             d eps       ncg     rms          rms(c)
RMM:   1    -0.291049027023E+03   -0.10914E-01   -0.84913E-01   762   0.151E+00    0.279E-01
RMM:   2    -0.291055604370E+03   -0.65773E-02   -0.15020E-02   790   0.183E-01    0.105E+00
RMM:   3    -0.291043680012E+03    0.11924E-01   -0.25848E-03   790   0.757E-02    0.287E-01
RMM:   4    -0.291045060488E+03   -0.13805E-02   -0.79105E-04   790   0.402E-02    0.373E-01
RMM:   5    -0.291045050714E+03    0.97731E-05   -0.37885E-04   756   0.377E-02    0.194E-01
RMM:   6    -0.291045145946E+03   -0.95232E-04   -0.75888E-05   725   0.214E-02    0.145E-01
RMM:   7    -0.291045113588E+03    0.32358E-04   -0.13641E-05   650   0.985E-03    0.144E-01
RMM:   8    -0.291045042443E+03    0.71145E-04   -0.38253E-05   682   0.765E-03    0.670E-02
RMM:   9    -0.291045094501E+03   -0.52058E-04   -0.17394E-05   674   0.108E-02    0.199E-02
RMM:  10    -0.291045097780E+03   -0.32783E-05   -0.37107E-06   550   0.377E-03    0.199E-02
RMM:  11    -0.291045095848E+03    0.19312E-05   -0.13650E-06   484   0.215E-03    0.853E-03
RMM:  12    -0.291045096712E+03   -0.86334E-06   -0.33360E-07   450   0.141E-03
  48 F= -.29102083E+03 E0= -.29101184E+03  d E =-.692204E-02  mag=    -0.0000
 trial-energy change:   -0.006922  1 .order   -0.023855   -0.028980   -0.018731
 step:   1.1173(harm=  1.1173)  dis= 0.01829  next Energy=  -291.054879 (dE=-0.410E-01)
 bond charge predicted
       N       E                     dE             d eps       ncg     rms          rms(c)
RMM:   1    -0.291063220722E+03   -0.18125E-01   -0.28246E+00   762   0.277E+00    0.717E-01
RMM:   2    -0.291107608050E+03   -0.44387E-01   -0.73183E-02   783   0.370E-01    0.167E+00
RMM:   3    -0.291054043674E+03    0.53564E-01   -0.13385E-02   766   0.160E-01    0.101E+00
RMM:   4    -0.291047691676E+03    0.63520E-02   -0.43184E-03   806   0.833E-02    0.265E-01
RMM:   5    -0.291050538503E+03   -0.28468E-02   -0.13402E-03   810   0.597E-02    0.450E-01
RMM:   6    -0.291050359020E+03    0.17948E-03   -0.58222E-04   762   0.406E-02    0.285E-01
RMM:   7    -0.291050332722E+03    0.26298E-04   -0.10796E-04   723   0.272E-02    0.198E-01
RMM:   8    -0.291050156301E+03    0.17642E-03   -0.35792E-05   698   0.153E-02    0.903E-02
RMM:   9    -0.291050248001E+03   -0.91700E-04   -0.45047E-05   704   0.115E-02    0.666E-02
RMM:  10    -0.291050291418E+03   -0.43416E-04   -0.25293E-05   691   0.110E-02    0.289E-02
RMM:  11    -0.291050297840E+03   -0.64223E-05   -0.71148E-06   599   0.489E-03    0.589E-03
RMM:  12    -0.291050303165E+03   -0.53245E-05   -0.20351E-06   510   0.326E-03    0.911E-03
RMM:  13    -0.291050303161E+03    0.39145E-08   -0.40703E-07   472   0.183E-03
  49 F= -.29102591E+03 E0= -.29101645E+03  d E =-.120062E-01  mag=    -0.0000
 curvature:  -2.51 expect dE=-0.136E+00 dE for cont linesearch -0.216E-05
 trial: gam= 0.68346 g(F)=  0.542E-01 g(S)=  0.000E+00 ort = 0.533E-03 (trialstep = 0.540E+00)
 search vector abs. value=  0.209E+00
 bond charge predicted
       N       E                     dE             d eps       ncg     rms          rms(c)
RMM:   1    -0.291063261594E+03   -0.12958E-01   -0.11539E+00   764   0.176E+00    0.267E-01
RMM:   2    -0.291062806302E+03    0.45529E-03   -0.17625E-02   798   0.243E-01    0.893E-01
RMM:   3    -0.291056544162E+03    0.62621E-02   -0.21920E-03   826   0.656E-02    0.211E-01
RMM:   4    -0.291057449158E+03   -0.90500E-03   -0.63862E-04   779   0.422E-02    0.136E-01
RMM:   5    -0.291057741399E+03   -0.29224E-03   -0.56789E-04   757   0.375E-02    0.144E-01
RMM:   6    -0.291057684089E+03    0.57310E-04   -0.58210E-05   710   0.136E-02    0.136E-01
RMM:   7    -0.291057625423E+03    0.58666E-04   -0.24536E-05   682   0.127E-02    0.969E-02
RMM:   8    -0.291057661196E+03   -0.35774E-04   -0.30286E-05   681   0.104E-02    0.783E-02
RMM:   9    -0.291057657554E+03    0.36420E-05   -0.16604E-05   680   0.926E-03    0.157E-02
RMM:  10    -0.291057662776E+03   -0.52214E-05   -0.86331E-06   634   0.538E-03    0.434E-03
RMM:  11    -0.291057663190E+03   -0.41417E-06   -0.99806E-07   473   0.216E-03
  50 F= -.29103427E+03 E0= -.29102454E+03  d E =-.835505E-02  mag=    -0.0000
 trial-energy change:   -0.008355  1 .order   -0.020777   -0.029463   -0.012091
 step:   0.9151(harm=  0.9151)  dis= 0.01284  next Energy=  -291.050898 (dE=-0.250E-01)
 bond charge predicted
       N       E                     dE             d eps       ncg     rms          rms(c)
RMM:   1    -0.291060153874E+03   -0.24911E-02   -0.55955E-01   764   0.122E+00    0.180E-01
RMM:   2    -0.291059379034E+03    0.77484E-03   -0.82338E-03   794   0.167E-01    0.625E-01
RMM:   3    -0.291056841539E+03    0.25375E-02   -0.10286E-03   832   0.458E-02    0.135E-01
RMM:   4    -0.291057360119E+03   -0.51858E-03   -0.27375E-04   766   0.289E-02    0.814E-02
RMM:   5    -0.291057490466E+03   -0.13035E-03   -0.26844E-04   756   0.250E-02    0.102E-01
RMM:   6    -0.291057474995E+03    0.15471E-04   -0.21179E-05   681   0.957E-03    0.119E-01
RMM:   7    -0.291057384491E+03    0.90503E-04   -0.15906E-05   661   0.105E-02    0.234E-02
RMM:   8    -0.291057447759E+03   -0.63267E-04   -0.13056E-05   673   0.873E-03    0.278E-02
RMM:   9    -0.291057451538E+03   -0.37792E-05   -0.77452E-06   616   0.492E-03    0.104E-02
RMM:  10    -0.291057453096E+03   -0.15580E-05   -0.15772E-06   483   0.283E-03    0.178E-03
RMM:  11    -0.291057453319E+03   -0.22308E-06   -0.25727E-07   445   0.136E-03
  51 F= -.29103474E+03 E0= -.29102477E+03  d E =-.882173E-02  mag=     0.0000
 curvature:  -1.75 expect dE=-0.969E-01 dE for cont linesearch -0.212E-05
 trial: gam= 1.03111 g(F)=  0.553E-01 g(S)=  0.000E+00 ort =-0.504E-03 (trialstep = 0.465E+00)
 search vector abs. value=  0.277E+00
 bond charge predicted
       N       E                     dE             d eps       ncg     rms          rms(c)
RMM:   1    -0.291072472752E+03   -0.15020E-01   -0.12722E+00   762   0.186E+00    0.229E-01
RMM:   2    -0.291066301298E+03    0.61715E-02   -0.15466E-02   788   0.211E-01    0.199E-01
RMM:   3    -0.291067395992E+03   -0.10947E-02   -0.19841E-03   908   0.575E-02    0.522E-01
[...]
RMM:   2    -0.291085099176E+03   -0.14462E-04   -0.49219E-04   760   0.352E-02    0.173E-01
RMM:   3    -0.291084864976E+03    0.23420E-03   -0.56362E-05   691   0.138E-02    0.284E-02
RMM:   4    -0.291084909574E+03   -0.44598E-04   -0.82032E-06   624   0.737E-03    0.231E-02
RMM:   5    -0.291084922266E+03   -0.12692E-04   -0.94021E-06   600   0.561E-03    0.231E-02
RMM:   6    -0.291084915454E+03    0.68120E-05   -0.25721E-06   517   0.419E-03    0.147E-02
RMM:   7    -0.291084913982E+03    0.14726E-05   -0.30545E-06   515   0.323E-03    0.554E-03
RMM:   8    -0.291084920209E+03   -0.62278E-05   -0.10509E-06   466   0.286E-03    0.368E-03
RMM:   9    -0.291084921172E+03   -0.96237E-06   -0.47690E-07   406   0.158E-03
 226 F= -.29106197E+03 E0= -.29105973E+03  d E =-.596267E-03  mag=    -0.0000
 curvature:  -1.33 expect dE=-0.553E-03 dE for cont linesearch -0.137E-04
 ZBRENT: extrapolating
 opt :   1.9360  next Energy=  -291.061988 (dE=-0.611E-03)
 bond charge predicted
       N       E                     dE             d eps       ncg     rms          rms(c)
RMM:   1    -0.291085033434E+03   -0.11322E-03   -0.26669E-03   762   0.852E-02    0.137E-02
RMM:   2    -0.291085034224E+03   -0.79018E-06   -0.44804E-05   688   0.108E-02    0.510E-02
RMM:   3    -0.291085011679E+03    0.22545E-04   -0.53389E-06   574   0.450E-03    0.876E-03
RMM:   4    -0.291085016542E+03   -0.48626E-05   -0.86363E-07   455   0.264E-03    0.609E-03
RMM:   5    -0.291085018452E+03   -0.19099E-05   -0.12069E-06   449   0.225E-03    0.169E-03
RMM:   6    -0.291085018715E+03   -0.26320E-06   -0.13518E-07   352   0.104E-03
 227 F= -.29106205E+03 E0= -.29105982E+03  d E =-.673972E-03  mag=    -0.0002
 curvature:  -1.41 expect dE=-0.771E-03 dE for cont linesearch -0.250E-07
 trial: gam= 0.81273 g(F)=  0.548E-03 g(S)=  0.000E+00 ort = 0.410E-05 (trialstep = 0.416E+00)
 search vector abs. value=  0.118E-02
 bond charge predicted
       N       E                     dE             d eps       ncg     rms          rms(c)
RMM:   1    -0.291085193111E+03   -0.17466E-03   -0.64633E-03   766   0.135E-01    0.186E-02
RMM:   2    -0.291085165440E+03    0.27671E-04   -0.80647E-05   704   0.178E-02    0.353E-02
RMM:   3    -0.291085154422E+03    0.11018E-04   -0.79875E-06   620   0.465E-03    0.169E-02
RMM:   4    -0.291085157682E+03   -0.32599E-05   -0.18773E-06   503   0.318E-03    0.105E-02
RMM:   5    -0.291085159954E+03   -0.22728E-05   -0.98417E-07   449   0.211E-03    0.133E-02
RMM:   6    -0.291085156774E+03    0.31804E-05   -0.76059E-07   454   0.214E-03    0.897E-03
RMM:   7    -0.291085156911E+03   -0.13716E-06   -0.11320E-06   421   0.198E-03
 228 F= -.29106225E+03 E0= -.29106003E+03  d E =-.202973E-03  mag=     0.0000
 trial-energy change:   -0.000203  1 .order   -0.000189   -0.000229   -0.000150
 step:   1.1987(harm=  1.1987)  dis= 0.00236  next Energy=  -291.062381 (dE=-0.330E-03)
 bond charge predicted
       N       E                     dE             d eps       ncg     rms          rms(c)
RMM:   1    -0.291085476248E+03   -0.31947E-03   -0.22920E-02   766   0.254E-01    0.324E-02
RMM:   2    -0.291085369944E+03    0.10630E-03   -0.27758E-04   750   0.334E-02    0.512E-02
RMM:   3    -0.291085350205E+03    0.19738E-04   -0.25583E-05   690   0.783E-03    0.318E-02
RMM:   4    -0.291085353580E+03   -0.33742E-05   -0.63284E-06   591   0.521E-03    0.139E-02
RMM:   5    -0.291085359314E+03   -0.57343E-05   -0.50537E-06   579   0.394E-03    0.814E-03
RMM:   6    -0.291085359779E+03   -0.46553E-06   -0.64622E-07   459   0.207E-03
 229 F= -.29106256E+03 E0= -.29106036E+03  d E =-.506690E-03  mag=    -0.0004
 curvature:  -1.28 expect dE=-0.119E-02 dE for cont linesearch -0.335E-06
 trial: gam= 1.64503 g(F)=  0.930E-03 g(S)=  0.000E+00 ort = 0.176E-04 (trialstep = 0.161E+00)
 search vector abs. value=  0.418E-02
 bond charge predicted
       N       E                     dE             d eps       ncg     rms          rms(c)
RMM:   1    -0.291085444969E+03   -0.85655E-04   -0.34059E-03   760   0.982E-02    0.126E-02
RMM:   2    -0.291085427321E+03    0.17647E-04   -0.42024E-05   684   0.138E-02    0.112E-02
RMM:   3    -0.291085428465E+03   -0.11431E-05   -0.31685E-06   525   0.296E-03    0.160E-02
RMM:   4    -0.291085427791E+03    0.67353E-06   -0.49019E-07   447   0.176E-03    0.143E-02
RMM:   5    -0.291085425507E+03    0.22840E-05   -0.44625E-07   422   0.155E-03    0.112E-02
RMM:   6    -0.291085425344E+03    0.16333E-06   -0.11821E-06   448   0.207E-03
 230 F= -.29106262E+03 E0= -.29106042E+03  d E =-.578704E-04  mag=     0.0001
 ZBRENT: can't locate minimum, use default step
 trial-energy change:   -0.000058  1 .order   -0.000142   -0.000155   -0.000129
 step:   0.6460(harm=  0.9785)  dis= 0.00186  next Energy=  -291.063027 (dE=-0.469E-03)
 bond charge predicted
       N       E                     dE             d eps       ncg     rms          rms(c)
RMM:   1    -0.291085693826E+03   -0.26832E-03   -0.30543E-02   766   0.294E-01    0.358E-02
RMM:   2    -0.291085547092E+03    0.14673E-03   -0.36839E-04   756   0.400E-02    0.322E-02
RMM:   3    -0.291085552570E+03   -0.54778E-05   -0.31053E-05   711   0.826E-03    0.486E-02
RMM:   4    -0.291085542526E+03    0.10043E-04   -0.11308E-05   630   0.614E-03    0.149E-02
RMM:   5    -0.291085549847E+03   -0.73209E-05   -0.73828E-06   618   0.460E-03    0.926E-03
RMM:   6    -0.291085551031E+03   -0.11833E-05   -0.80609E-07   471   0.227E-03    0.438E-03
RMM:   7    -0.291085551512E+03   -0.48125E-06   -0.20742E-07   412   0.109E-03
 231 F= -.29106279E+03 E0= -.29106063E+03  d E =-.227645E-03  mag=     0.0001
 curvature:  -1.78 expect dE=-0.537E-03 dE for cont linesearch -0.455E-04
 ZBRENT: increasing intervall
 opt :   1.6150  next Energy=  -291.062644 (dE=-0.859E-04)
 bond charge predicted
       N       E                     dE             d eps       ncg     rms          rms(c)
RMM:   1    -0.291086010043E+03   -0.45901E-03   -0.12254E-01   766   0.590E-01    0.689E-02
RMM:   2    -0.291085417181E+03    0.59286E-03   -0.14818E-03   768   0.809E-02    0.511E-02
RMM:   3    -0.291085456288E+03   -0.39106E-04   -0.12163E-04   816   0.162E-02    0.842E-02
RMM:   4    -0.291085415860E+03    0.40427E-04   -0.39414E-05   678   0.974E-03    0.344E-02
RMM:   5    -0.291085432943E+03   -0.17083E-04   -0.26097E-05   703   0.847E-03    0.220E-02
RMM:   6    -0.291085438289E+03   -0.53456E-05   -0.40022E-06   543   0.378E-03    0.216E-02
RMM:   7    -0.291085429290E+03    0.89992E-05   -0.19618E-06   509   0.366E-03    0.130E-02
RMM:   8    -0.291085429239E+03    0.50828E-07   -0.22279E-06   492   0.256E-03
 232 F= -.29106273E+03 E0= -.29106062E+03  d E =-.168848E-03  mag=     0.0000
 curvature:   5.54 expect dE= 0.883E-02 dE for cont linesearch  0.517E-03
 ZBRENT: bracketing found
 ZBRENT: interpolating
 opt :   0.9790  next Energy=  -291.062840 (dE=-0.282E-03)
 bond charge predicted
       N       E                     dE             d eps       ncg     rms          rms(c)
RMM:   1    -0.291085821269E+03   -0.39198E-03   -0.52680E-02   766   0.387E-01    0.481E-02
RMM:   2    -0.291085586980E+03    0.23429E-03   -0.64251E-04   758   0.525E-02    0.581E-02
RMM:   3    -0.291085567328E+03    0.19652E-04   -0.54766E-05   722   0.113E-02    0.559E-02
RMM:   4    -0.291085560020E+03    0.73078E-05   -0.17044E-05   659   0.789E-03    0.191E-02
RMM:   5    -0.291085567834E+03   -0.78139E-05   -0.12332E-05   648   0.575E-03    0.110E-02
RMM:   6    -0.291085569183E+03   -0.13483E-05   -0.12428E-06   473   0.249E-03    0.120E-02
RMM:   7    -0.291085565414E+03    0.37683E-05   -0.82811E-07   455   0.223E-03    0.712E-03
RMM:   8    -0.291085566114E+03   -0.69921E-06   -0.85949E-07   412   0.159E-03
 233 F= -.29106282E+03 E0= -.29106072E+03  d E =-.266069E-03  mag=     0.0000
 curvature:  -0.58 expect dE=-0.253E-03 dE for cont linesearch -0.133E-06
 trial: gam= 0.46490 g(F)=  0.434E-03 g(S)=  0.000E+00 ort = 0.309E-04 (trialstep = 0.325E+00)
 search vector abs. value=  0.137E-02
 bond charge predicted
       N       E                     dE             d eps       ncg     rms          rms(c)
RMM:   1    -0.291085584902E+03   -0.19487E-04   -0.35734E-03   756   0.944E-02    0.145E-02
RMM:   2    -0.291085579255E+03    0.56472E-05   -0.48123E-05   690   0.138E-02    0.286E-02
RMM:   3    -0.291085571704E+03    0.75506E-05   -0.37699E-06   538   0.371E-03    0.116E-02
RMM:   4    -0.291085572961E+03   -0.12566E-05   -0.27458E-06   467   0.312E-03    0.525E-03
RMM:   5    -0.291085573888E+03   -0.92733E-06   -0.16495E-06   436   0.236E-03    0.368E-03
RMM:   6    -0.291085573990E+03   -0.10176E-06   -0.16722E-07   358   0.125E-03
 234 F= -.29106289E+03 E0= -.29106077E+03  d E =-.707325E-04  mag=     0.0001
 trial-energy change:   -0.000071  1 .order   -0.000105   -0.000146   -0.000064
 step:   0.5826(harm=  0.5826)  dis= 0.00129  next Energy=  -291.062954 (dE=-0.131E-03)
 bond charge predicted
       N       E                     dE             d eps       ncg     rms          rms(c)
RMM:   1    -0.291085546794E+03    0.27094E-04   -0.22360E-03   756   0.747E-02    0.118E-02
RMM:   2    -0.291085542524E+03    0.42700E-05   -0.30089E-05   664   0.110E-02    0.200E-02
RMM:   3    -0.291085538994E+03    0.35299E-05   -0.22877E-06   503   0.291E-03    0.984E-03
RMM:   4    -0.291085540172E+03   -0.11781E-05   -0.11657E-06   440   0.231E-03    0.638E-03
RMM:   5    -0.291085541367E+03   -0.11949E-05   -0.88474E-07   416   0.193E-03    0.810E-03
RMM:   6    -0.291085540165E+03    0.12022E-05   -0.21937E-07   376   0.138E-03    0.624E-03
RMM:   7    -0.291085539018E+03    0.11468E-05   -0.64249E-07   388   0.146E-03    0.149E-03
RMM:   8    -0.291085541197E+03   -0.21787E-05   -0.11937E-07   336   0.121E-03    0.116E-03
RMM:   9    -0.291085541293E+03   -0.96639E-07   -0.10436E-07   267   0.652E-04
 235 F= -.29106290E+03 E0= -.29106078E+03  d E =-.801855E-04  mag=    -0.0000
 curvature:  -0.89 expect dE=-0.321E-03 dE for cont linesearch -0.529E-07
 trial: gam= 0.79741 g(F)=  0.362E-03 g(S)=  0.000E+00 ort = 0.903E-05 (trialstep = 0.377E+00)
 search vector abs. value=  0.124E-02
 bond charge predicted
       N       E                     dE             d eps       ncg     rms          rms(c)
RMM:   1    -0.291085486486E+03    0.54710E-04   -0.24671E-03   760   0.770E-02    0.108E-02
RMM:   2    -0.291085485178E+03    0.13086E-05   -0.39400E-05   699   0.118E-02    0.338E-02
RMM:   3    -0.291085474838E+03    0.10340E-04   -0.36250E-06   550   0.393E-03    0.744E-03
RMM:   4    -0.291085477473E+03   -0.26348E-05   -0.64658E-07   440   0.231E-03    0.524E-03
RMM:   5    -0.291085478781E+03   -0.13082E-05   -0.10398E-06   439   0.205E-03    0.221E-03
RMM:   6    -0.291085478924E+03   -0.14279E-06   -0.16422E-07   368   0.118E-03
 236 F= -.29106281E+03 E0= -.29106071E+03  d E =0.898321E-04  mag=    -0.0002
 ZBRENT: can't locate minimum, use default step
 trial-energy change:    0.000090  1 .order   -0.000124   -0.000139   -0.000109
 step:   1.5061(harm=  1.7749)  dis= 0.00222  next Energy=  -291.063231 (dE=-0.327E-03)
 bond charge predicted
       N       E                     dE             d eps       ncg     rms          rms(c)
RMM:   1    -0.291085294288E+03    0.18449E-03   -0.22195E-02   768   0.231E-01    0.330E-02
RMM:   2    -0.291085292236E+03    0.20517E-05   -0.35904E-04   778   0.355E-02    0.106E-01
RMM:   3    -0.291085202292E+03    0.89944E-04   -0.34554E-05   702   0.114E-02    0.223E-02
RMM:   4    -0.291085217093E+03   -0.14801E-04   -0.49595E-06   572   0.559E-03    0.170E-02
RMM:   5    -0.291085223423E+03   -0.63295E-05   -0.70924E-06   602   0.491E-03    0.160E-02
RMM:   6    -0.291085223539E+03   -0.11599E-06   -0.61084E-07   468   0.237E-03
 237 F= -.29106247E+03 E0= -.29106038E+03  d E =0.432486E-03  mag=    -0.0004
 curvature:  -2.88 expect dE=-0.480E-03 dE for cont linesearch -0.117E-04
 ZBRENT: extrapolating
 opt :   1.8713  next Energy=  -291.062484 (dE= 0.420E-03)
 bond charge predicted
       N       E                     dE             d eps       ncg     rms          rms(c)
RMM:   1    -0.291085118395E+03    0.10503E-03   -0.22802E-03   762   0.744E-02    0.150E-02
RMM:   2    -0.291085133356E+03   -0.14961E-04   -0.44876E-05   698   0.120E-02    0.480E-02
RMM:   3    -0.291085112703E+03    0.20653E-04   -0.63624E-06   602   0.489E-03    0.909E-03
RMM:   4    -0.291085118260E+03   -0.55575E-05   -0.81579E-07   469   0.281E-03    0.100E-02
RMM:   5    -0.291085117026E+03    0.12348E-05   -0.22546E-07   436   0.146E-03    0.901E-03
RMM:   6    -0.291085116366E+03    0.65917E-06   -0.10131E-06   456   0.199E-03
 238 F= -.29106234E+03 E0= -.29106027E+03  d E =0.566659E-03  mag=     0.0001
 curvature:  -3.20 expect dE=-0.753E-03 dE for cont linesearch -0.188E-06
 trial: gam= 0.66622 g(F)=  0.235E-03 g(S)=  0.000E+00 ort = 0.854E-05 (trialstep = 0.675E+00)
 search vector abs. value=  0.799E-03
 bond charge predicted
       N       E                     dE             d eps       ncg     rms          rms(c)
RMM:   1    -0.291085021590E+03    0.95435E-04   -0.52386E-03   762   0.108E-01    0.103E-02
RMM:   2    -0.291084987081E+03    0.34509E-04   -0.58649E-05   693   0.130E-02    0.103E-02
RMM:   3    -0.291084986620E+03    0.46154E-06   -0.30411E-06   507   0.309E-03    0.118E-02
RMM:   4    -0.291084986326E+03    0.29319E-06   -0.74445E-07   436   0.202E-03    0.610E-03
RMM:   5    -0.291084987877E+03   -0.15504E-05   -0.14464E-06   457   0.221E-03    0.258E-03
RMM:   6    -0.291084988232E+03   -0.35478E-06   -0.20004E-07   379   0.135E-03
 239 F= -.29106222E+03 E0= -.29106015E+03  d E =0.114409E-03  mag=     0.0002
 trial-energy change:    0.000114  1 .order   -0.000126   -0.000163   -0.000089
 step:   1.4912(harm=  1.4912)  dis= 0.00156  next Energy=  -291.062517 (dE=-0.180E-03)
 bond charge predicted
       N       E                     dE             d eps       ncg     rms          rms(c)
RMM:   1    -0.291084873096E+03    0.11478E-03   -0.76303E-03   766   0.131E-01    0.127E-02
RMM:   2    -0.291084823026E+03    0.50070E-04   -0.86913E-05   698   0.160E-02    0.113E-02
RMM:   3    -0.291084823401E+03   -0.37514E-06   -0.44626E-06   545   0.365E-03    0.150E-02
RMM:   4    -0.291084822722E+03    0.67886E-06   -0.83784E-07   446   0.216E-03    0.102E-02
RMM:   5    -0.291084824135E+03   -0.14133E-05   -0.47973E-07   417   0.160E-03    0.120E-02
RMM:   6    -0.291084822041E+03    0.20940E-05   -0.30328E-07   409   0.149E-03    0.933E-03
RMM:   7    -0.291084821300E+03    0.74088E-06   -0.20903E-06   448   0.250E-03
 240 F= -.29106206E+03 E0= -.29105999E+03  d E =0.280321E-03  mag=     0.0000
 curvature:  -2.47 expect dE=-0.129E-02 dE for cont linesearch -0.240E-06
 trial: gam= 2.23418 g(F)=  0.524E-03 g(S)=  0.000E+00 ort = 0.880E-05 (trialstep = 0.147E+00)
 search vector abs. value=  0.455E-02
 bond charge predicted
       N       E                     dE             d eps       ncg     rms          rms(c)
RMM:   1    -0.291084778653E+03    0.43389E-04   -0.17541E-03   752   0.635E-02    0.596E-03
RMM:   2    -0.291084766925E+03    0.11727E-04   -0.19390E-05   629   0.731E-03    0.818E-03
RMM:   3    -0.291084766230E+03    0.69535E-06   -0.92832E-07   433   0.203E-03    0.496E-03
RMM:   4    -0.291084766645E+03   -0.41447E-06   -0.23247E-07   393   0.129E-03    0.412E-03
RMM:   5    -0.291084767415E+03   -0.77028E-06   -0.36097E-07   372   0.127E-03    0.418E-03
RMM:   6    -0.291084767452E+03   -0.37575E-07   -0.65072E-08   309   0.819E-04
 241 F= -.29106201E+03 E0= -.29105993E+03  d E =0.483507E-04  mag=     0.0001
 ZBRENT: can't locate minimum, use default step
 trial-energy change:    0.000048  1 .order   -0.000076   -0.000080   -0.000072
 step:   0.5889(harm=  1.4905)  dis= 0.00173  next Energy=  -291.062462 (dE=-0.405E-03)
 bond charge predicted
       N       E                     dE             d eps       ncg     rms          rms(c)
RMM:   1    -0.291084689478E+03    0.77937E-04   -0.15705E-02   768   0.190E-01    0.172E-02
RMM:   2    -0.291084588425E+03    0.10105E-03   -0.17284E-04   709   0.215E-02    0.204E-02
RMM:   3    -0.291084585549E+03    0.28762E-05   -0.89918E-06   630   0.512E-03    0.149E-02
RMM:   4    -0.291084585915E+03   -0.36582E-06   -0.15153E-06   489   0.267E-03    0.119E-02
RMM:   5    -0.291084588493E+03   -0.25788E-05   -0.43035E-06   529   0.368E-03    0.880E-03
RMM:   6    -0.291084589481E+03   -0.98748E-06   -0.56931E-07   420   0.203E-03
 242 F= -.29106186E+03 E0= -.29105976E+03  d E =0.199274E-03  mag=     0.0002
 curvature:  -3.43 expect dE=-0.814E-03 dE for cont linesearch -0.714E-04
 ZBRENT: increasing intervall
 opt :   1.4722  next Energy=  -291.061969 (dE= 0.881E-04)
 bond charge predicted
       N       E                     dE             d eps       ncg     rms          rms(c)
RMM:   1    -0.291084599160E+03   -0.10666E-04   -0.62833E-02   768   0.380E-01    0.349E-02
RMM:   2    -0.291084199373E+03    0.39979E-03   -0.69410E-04   762   0.432E-02    0.404E-02
RMM:   3    -0.291084189844E+03    0.95289E-05   -0.38082E-05   782   0.999E-03    0.306E-02
RMM:   4    -0.291084190179E+03   -0.33525E-06   -0.59891E-06   581   0.445E-03    0.248E-02
RMM:   5    -0.291084197543E+03   -0.73637E-05   -0.14267E-05   638   0.618E-03    0.221E-02
RMM:   6    -0.291084200953E+03   -0.34099E-05   -0.15912E-06   490   0.285E-03    0.260E-02
RMM:   7    -0.291084182698E+03    0.18255E-04   -0.10975E-05   604   0.640E-03    0.802E-03
RMM:   8    -0.291084193697E+03   -0.10999E-04   -0.21523E-06   505   0.366E-03    0.454E-03
RMM:   9    -0.291084196266E+03   -0.25686E-05   -0.94367E-07   443   0.211E-03    0.263E-03
RMM:  10    -0.291084196529E+03   -0.26281E-06   -0.39307E-07   375   0.124E-03
 243 F= -.29106151E+03 E0= -.29105940E+03  d E =0.542736E-03  mag=    -0.0000
 curvature:  -5.34 expect dE=-0.329E-02 dE for cont linesearch -0.200E-04
 ZBRENT: bracketing found
 ZBRENT: interpolating
 opt :   1.2092  next Energy=  -291.061531 (dE= 0.526E-03)
 bond charge predicted
       N       E                     dE             d eps       ncg     rms          rms(c)
RMM:   1    -0.291084355472E+03   -0.15921E-03   -0.55627E-03   756   0.113E-01    0.101E-02
RMM:   2    -0.291084318176E+03    0.37296E-04   -0.60402E-05   696   0.128E-02    0.102E-02
RMM:   3    -0.291084317577E+03    0.59883E-06   -0.28142E-06   476   0.303E-03    0.939E-03
RMM:   4    -0.291084317465E+03    0.11214E-06   -0.68281E-07   408   0.187E-03    0.688E-03
RMM:   5    -0.291084318645E+03   -0.11805E-05   -0.16650E-06   432   0.230E-03    0.282E-03
RMM:   6    -0.291084318879E+03   -0.23381E-06   -0.23887E-07   358   0.142E-03
 244 F= -.29106162E+03 E0= -.29105951E+03  d E =0.438370E-03  mag=     0.0000
 curvature:  -4.59 expect dE=-0.177E-02 dE for cont linesearch -0.147E-06
 trial: gam= 0.72353 g(F)=  0.385E-03 g(S)=  0.000E+00 ort = 0.121E-04 (trialstep = 0.360E+00)
 search vector abs. value=  0.278E-02
 bond charge predicted
       N       E                     dE             d eps       ncg     rms          rms(c)
RMM:   1    -0.291084335028E+03   -0.16383E-04   -0.75002E-03   758   0.132E-01    0.129E-02
RMM:   2    -0.291084285553E+03    0.49475E-04   -0.84380E-05   694   0.164E-02    0.127E-02
RMM:   3    -0.291084284555E+03    0.99790E-06   -0.40070E-06   526   0.348E-03    0.141E-02
RMM:   4    -0.291084283728E+03    0.82633E-06   -0.12947E-06   448   0.234E-03    0.682E-03
RMM:   5    -0.291084285512E+03   -0.17830E-05   -0.28633E-06   460   0.273E-03    0.240E-03
RMM:   6    -0.291084285610E+03   -0.98920E-07   -0.24164E-07   371   0.142E-03
 245 F= -.29106154E+03 E0= -.29105944E+03  d E =0.761521E-04  mag=     0.0001
 trial-energy change:    0.000076  1 .order   -0.000113   -0.000142   -0.000085
 step:   0.9040(harm=  0.9040)  dis= 0.00184  next Energy=  -291.061797 (dE=-0.178E-03)
 reached required accuracy - stopping structural energy minimisation
 writing wavefunctions
