<?xml version="1.0" encoding="ISO-8859-1"?>
<modeling>
 <generator>
  <i name="program" type="string">vasp </i>
  <i name="version" type="string">5.3.5  </i>
  <i name="subversion" type="string">31Mar14 (build Oct 09 2016 14:59:48) gamma-only                       parallel </i>
  <i name="platform" type="string">LinuxIFC </i>
  <i name="date" type="string">2017 07 30 </i>
  <i name="time" type="string">16:58:41 </i>
 </generator>
 <incar>
  <i type="string" name="SYSTEM"> TS_BlakPhos</i>
  <i type="int" name="ISTART">     1</i>
  <i type="string" name="PREC">accurate</i>
  <i type="string" name="ALGO"> VeryFast</i>
  <i type="logical" name="ADDGRID"> T  </i>
  <i type="int" name="ISPIN">     2</i>
  <i name="AMIX">      0.20000000</i>
  <i name="BMIX">      0.00001000</i>
  <i name="AMIX_MAG">      0.80000000</i>
  <i name="BMIX_MAG">      0.00001000</i>
  <i type="int" name="ICHARG">     1</i>
  <i type="int" name="NELM">   800</i>
  <i type="int" name="NELMDL">   -20</i>
  <i type="int" name="NELMIN">     6</i>
  <i type="int" name="IBRION">     2</i>
  <i name="EDIFF">      0.00000100</i>
  <i name="EDIFFG">     -0.03000000</i>
  <i type="int" name="NSW">  1000</i>
  <i type="int" name="ISIF">     2</i>
  <i type="int" name="ISYM">     0</i>
  <i name="ENCUT">    500.00000000</i>
  <i name="POTIM">      0.20000000</i>
  <i type="string" name="LREAL"> Auto</i>
  <i type="int" name="ISMEAR">     0</i>
  <i name="SIGMA">      0.05000000</i>
  <i type="int" name="NWRITE">     0</i>
  <i type="logical" name="LCHARG"> T  </i>
  <i type="logical" name="LVTOT"> F  </i>
  <i type="int" name="NELM">   800</i>
  <i type="string" name="GGA"> PE</i>
  <i type="int" name="IDIPOL">     3</i>
 </incar>
 <kpoints>
  <generation param="Gamma">
   <v type="int" name="divisions">       1        1        1 </v>
   <v name="usershift">      0.00000000       0.00000000       0.00000000 </v>
   <v name="genvec1">      1.00000000       0.00000000       0.00000000 </v>
   <v name="genvec2">      0.00000000       1.00000000       0.00000000 </v>
   <v name="genvec3">      0.00000000       0.00000000       1.00000000 </v>
   <v name="shift">      0.00000000       0.00000000       0.00000000 </v>
  </generation>
  <varray name="kpointlist" >
   <v>       0.00000000       0.00000000       0.00000000 </v>
  </varray>
  <varray name="weights" >
   <v>       1.00000000 </v>
  </varray>
 </kpoints>
 <parameters>
  <separator name="general" >
   <i type="string" name="SYSTEM">TS_BlakPhos</i>
   <i type="logical" name="LCOMPAT"> F  </i>
  </separator>
  <separator name="electronic" >
   <i type="string" name="PREC">accura</i>
   <i name="ENMAX">    500.00000000</i>
   <i name="ENAUG">    644.87300000</i>
   <i name="EDIFF">      0.00000100</i>
   <i type="int" name="IALGO">    48</i>
   <i type="int" name="IWAVPR">    11</i>
   <i type="int" name="NBANDS">   189</i>
   <i name="NELECT">    270.00000000</i>
   <i type="int" name="TURBO">     0</i>
   <i type="int" name="IRESTART">     0</i>
   <i type="int" name="NREBOOT">     0</i>
   <i type="int" name="NMIN">     0</i>
   <i name="EREF">      0.00000000</i>
   <separator name="electronic smearing" >
    <i type="int" name="ISMEAR">     0</i>
    <i name="SIGMA">      0.05000000</i>
    <i name="KSPACING">      0.50000000</i>
    <i type="logical" name="KGAMMA"> T  </i>
   </separator>
   <separator name="electronic projectors" >
    <i type="logical" name="LREAL"> T  </i>
    <v name="ROPT">     -0.00025000     -0.00025000     -0.00025000     -0.00025000</v>
    <i type="int" name="LMAXPAW">  -100</i>
    <i type="int" name="LMAXMIX">     2</i>
    <i type="logical" name="NLSPLINE"> F  </i>
   </separator>
   <separator name="electronic startup" >
    <i type="int" name="ISTART">     0</i>
    <i type="int" name="ICHARG">     1</i>
    <i type="int" name="INIWAV">     1</i>
   </separator>
   <separator name="electronic spin" >
    <i type="int" name="ISPIN">     2</i>
    <i type="logical" name="LNONCOLLINEAR"> F  </i>
    <v name="MAGMOM">      1.00000000      1.00000000      1.00000000      1.00000000      1.00000000      1.00000000      1.00000000      1.00000000      1.00000000      1.00000000      1.00000000      1.00000000      1.00000000      1.00000000      1.00000000      1.00000000      1.00000000      1.00000000      1.00000000      1.00000000
      1.00000000      1.00000000      1.00000000      1.00000000      1.00000000      1.00000000      1.00000000      1.00000000      1.00000000      1.00000000      1.00000000      1.00000000      1.00000000      1.00000000      1.00000000      1.00000000      1.00000000      1.00000000      1.00000000      1.00000000
      1.00000000      1.00000000      1.00000000      1.00000000      1.00000000      1.00000000      1.00000000      1.00000000      1.00000000      1.00000000      1.00000000      1.00000000      1.00000000</v>
    <i name="NUPDOWN">     -1.00000000</i>
    <i type="logical" name="LSORBIT"> F  </i>
    <v name="SAXIS">      0.00000000      0.00000000      1.00000000</v>
    <i type="logical" name="LSPIRAL"> F  </i>
    <v name="QSPIRAL">      0.00000000      0.00000000      0.00000000</v>
    <i type="logical" name="LZEROZ"> F  </i>
   </separator>
   <separator name="electronic exchange-correlation" >
    <i type="logical" name="LASPH"> F  </i>
    <i type="logical" name="LMETAGGA"> F  </i>
   </separator>
   <separator name="electronic convergence" >
    <i type="int" name="NELM">   800</i>
    <i type="int" name="NELMDL">   -20</i>
    <i type="int" name="NELMIN">     6</i>
    <i name="ENINI">    500.00000000</i>
    <separator name="electronic convergence detail" >
     <i type="logical" name="LDIAG"> T  </i>
     <i type="logical" name="LSUBROT"> F  </i>
     <i name="WEIMIN">      0.00100000</i>
     <i name="EBREAK">      0.00000000</i>
     <i name="DEPER">      0.30000000</i>
     <i type="int" name="NRMM">     4</i>
     <i name="TIME">      0.40000000</i>
    </separator>
   </separator>
   <separator name="electronic mixer" >
    <i name="AMIX">      0.20000000</i>
    <i name="BMIX">      0.00001000</i>
    <i name="AMIN">      0.10000000</i>
    <i name="AMIX_MAG">      0.80000000</i>
    <i name="BMIX_MAG">      0.00001000</i>
    <separator name="electronic mixer details" >
     <i type="int" name="IMIX">     4</i>
     <i type="int" name="MAXMIX">   -45</i>
     <i name="WC">    100.00000000</i>
     <i type="int" name="INIMIX">     1</i>
     <i type="int" name="MIXPRE">     1</i>
     <i type="int" name="MREMOVE">     5</i>
    </separator>
   </separator>
   <separator name="electronic dipolcorrection" >
    <i type="logical" name="LDIPOL"> F  </i>
    <i type="logical" name="LMONO"> F  </i>
    <i type="int" name="IDIPOL">     3</i>
    <i name="EPSILON">      1.00000000</i>
    <v name="DIPOL">   -100.00000000   -100.00000000   -100.00000000</v>
    <i name="EFIELD">      0.00000000</i>
   </separator>
  </separator>
  <separator name="grids" >
   <i type="int" name="NGX">    98</i>
   <i type="int" name="NGY">    96</i>
   <i type="int" name="NGZ">   150</i>
   <i type="int" name="NGXF">   196</i>
   <i type="int" name="NGYF">   192</i>
   <i type="int" name="NGZF">   300</i>
   <i type="logical" name="ADDGRID"> T  </i>
  </separator>
  <separator name="ionic" >
   <i type="int" name="NSW">  1000</i>
   <i type="int" name="IBRION">     2</i>
   <i type="int" name="ISIF">     2</i>
   <i name="PSTRESS">      0.00000000</i>
   <i name="EDIFFG">     -0.03000000</i>
   <i type="int" name="NFREE">     1</i>
   <i name="POTIM">      0.20000000</i>
   <i name="SMASS">     -3.00000000</i>
   <i name="SCALEE">      1.00000000</i>
  </separator>
  <separator name="ionic md" >
   <i name="TEBEG">      0.00010000</i>
   <i name="TEEND">      0.00010000</i>
   <i type="int" name="NBLOCK">     1</i>
   <i type="int" name="KBLOCK">  1000</i>
   <i type="int" name="NPACO">   256</i>
   <i name="APACO">     16.00000000</i>
  </separator>
  <separator name="symmetry" >
   <i type="int" name="ISYM">     0</i>
   <i name="SYMPREC">      0.00001000</i>
  </separator>
  <separator name="dos" >
   <i type="logical" name="LORBIT"> F  </i>
   <v name="RWIGS">     -1.00000000     -1.00000000     -1.00000000     -1.00000000</v>
   <i type="int" name="NEDOS">   301</i>
   <i name="EMIN">     10.00000000</i>
   <i name="EMAX">    -10.00000000</i>
   <i name="EFERMI">      0.00000000</i>
  </separator>
  <separator name="writing" >
   <i type="int" name="NWRITE">     0</i>
   <i type="logical" name="LWAVE"> T  </i>
   <i type="logical" name="LCHARG"> T  </i>
   <i type="logical" name="LPARD"> F  </i>
   <i type="logical" name="LVTOT"> F  </i>
   <i type="logical" name="LVHAR"> F  </i>
   <i type="logical" name="LELF"> F  </i>
   <i type="logical" name="LOPTICS"> F  </i>
   <v name="STM">      0.00000000      0.00000000      0.00000000      0.00000000      0.00000000      0.00000000      0.00000000</v>
  </separator>
  <separator name="performance" >
   <i type="int" name="NPAR">     1</i>
   <i type="int" name="NSIM">     4</i>
   <i type="int" name="NBLK">    -1</i>
   <i type="logical" name="LPLANE"> T  </i>
   <i type="logical" name="LSCALAPACK"> T  </i>
   <i type="logical" name="LSCAAWARE"> F  </i>
   <i type="logical" name="LSCALU"> F  </i>
   <i type="logical" name="LASYNC"> F  </i>
   <i type="logical" name="LORBITALREAL"> F  </i>
  </separator>
  <separator name="miscellaneous" >
   <i type="int" name="IDIOT">     3</i>
   <i type="logical" name="LMUSIC"> F  </i>
   <v name="POMASS">     30.97400000    101.07000000     12.01100000     16.00000000</v>
   <v name="DARWINR">      0.00000000      0.00000000      0.00000000      0.00000000</v>
   <v name="DARWINV">      1.00000000      1.00000000      1.00000000      1.00000000</v>
   <i type="logical" name="LCORR"> T  </i>
  </separator>
  <i type="logical" name="GGA_COMPAT"> T  </i>
  <i type="logical" name="LBERRY"> F  </i>
  <i type="int" name="ICORELEVEL">     0</i>
  <i type="logical" name="LDAU"> F  </i>
  <i type="int" name="I_CONSTRAINED_M">     0</i>
  <separator name="electronic exchange-correlation" >
   <i type="string" name="GGA">PE</i>
   <i type="int" name="VOSKOWN">     0</i>
   <i type="logical" name="LHFCALC"> F  </i>
   <i type="string" name="PRECFOCK"></i>
   <i type="logical" name="LSYMGRAD"> F  </i>
   <i type="logical" name="LHFONE"> F  </i>
   <i type="logical" name="LRHFCALC"> F  </i>
   <i type="logical" name="LTHOMAS"> F  </i>
   <i type="logical" name="LMODELHF"> F  </i>
   <i name="ENCUT4O">     -1.00000000</i>
   <i type="int" name="EXXOEP">     0</i>
   <i type="int" name="FOURORBIT">     0</i>
   <i name="AEXX">      0.00000000</i>
   <i name="HFALPHA">      0.00000000</i>
   <i name="MCALPHA">      0.00000000</i>
   <i name="ALDAX">      1.00000000</i>
   <i name="AGGAX">      1.00000000</i>
   <i name="ALDAC">      1.00000000</i>
   <i name="AGGAC">      1.00000000</i>
   <i type="int" name="NKREDX">     1</i>
   <i type="int" name="NKREDY">     1</i>
   <i type="int" name="NKREDZ">     1</i>
   <i type="logical" name="SHIFTRED"> F  </i>
   <i type="logical" name="ODDONLY"> F  </i>
   <i type="logical" name="EVENONLY"> F  </i>
   <i type="int" name="LMAXFOCK">     0</i>
   <i type="int" name="NMAXFOCKAE">     0</i>
   <i type="logical" name="LFOCKAEDFT"> F  </i>
   <i name="HFSCREEN">      0.00000000</i>
   <i name="HFSCREENC">      0.00000000</i>
   <i type="int" name="NBANDSGWLOW">     0</i>
  </separator>
  <separator name="vdW DFT" >
   <i type="logical" name="LUSE_VDW"> F  </i>
   <i name="Zab_VDW">     -0.84910000</i>
   <i name="PARAM1">      0.12340000</i>
   <i name="PARAM2">      1.00000000</i>
   <i name="PARAM3">      0.00000000</i>
  </separator>
  <separator name="model GW" >
   <i type="int" name="MODEL_GW">     0</i>
   <i name="MODEL_EPS0">     39.39977883</i>
   <i name="MODEL_ALPHA">      1.00000000</i>
  </separator>
  <separator name="linear response parameters" >
   <i type="logical" name="LEPSILON"> F  </i>
   <i type="logical" name="LRPA"> F  </i>
   <i type="logical" name="LNABLA"> F  </i>
   <i type="logical" name="LVEL"> F  </i>
   <i type="int" name="KINTER">     0</i>
   <i name="CSHIFT">      0.10000000</i>
   <i name="OMEGAMAX">     -1.00000000</i>
   <i name="DEG_THRESHOLD">      0.00200000</i>
  </separator>
  <separator name="orbital magnetization" >
   <i type="logical" name="NUCIND"> F  </i>
   <v name="MAGPOS">      0.00000000      0.00000000      0.00000000</v>
   <i type="logical" name="LNICSALL"> T  </i>
   <i type="logical" name="ORBITALMAG"> F  </i>
   <i type="logical" name="LMAGBLOCH"> F  </i>
   <i type="logical" name="LCHIMAG"> F  </i>
   <i type="logical" name="LGAUGE"> T  </i>
   <i type="int" name="MAGATOM">     0</i>
   <v name="MAGDIPOL">      0.00000000      0.00000000      0.00000000</v>
   <v name="AVECCONST">      0.00000000      0.00000000      0.00000000</v>
  </separator>
  <separator name="response functions" >
   <i type="logical" name="LADDER"> F  </i>
   <i type="logical" name="LFXC"> F  </i>
   <i type="logical" name="LHARTREE"> T  </i>
   <i type="int" name="IBSE">     0</i>
   <i type="logical" name="LTCTE"> F  </i>
   <i type="logical" name="LTETE"> F  </i>
   <i type="logical" name="LTRIPLET"> F  </i>
   <i type="logical" name="LFXCEPS"> F  </i>
   <i type="logical" name="LFXHEG"> F  </i>
   <i type="logical" name="L2ORDER"> F  </i>
   <i type="logical" name="LUSEW"> F  </i>
   <i name="ENCUTGW">     -2.00000000</i>
   <i name="ENCUTGWSOFT">     -2.00000000</i>
   <i name="ENCUTLF">     -1.00000000</i>
   <i type="int" name="LMAXMP2">    -1</i>
   <i name="SCISSOR">      0.00000000</i>
   <i type="int" name="NOMEGA">     0</i>
   <i type="int" name="NOMEGAR">     0</i>
   <i type="int" name="NBANDSGW">    -1</i>
   <i type="int" name="NBANDSO">    -1</i>
   <i type="int" name="NBANDSV">    -1</i>
   <i type="int" name="NELM">   800</i>
   <i type="int" name="DIM">     3</i>
   <i type="int" name="ANTIRES">     0</i>
   <i name="OMEGAMAX">    -30.00000000</i>
   <i name="OMEGAMIN">    -30.00000000</i>
   <i name="OMEGATL">   -200.00000000</i>
   <i type="int" name="OMEGAGRID">     0</i>
   <i name="CSHIFT">     -0.10000000</i>
   <i type="logical" name="SELFENERGY"> F  </i>
   <i type="logical" name="LSPECTRAL"> F  </i>
   <i type="logical" name="ODDONLYGW"> F  </i>
   <i type="logical" name="EVENONLYGW"> F  </i>
   <i type="int" name="NKREDLFX">     1</i>
   <i type="int" name="NKREDLFY">     1</i>
   <i type="int" name="NKREDLFZ">     1</i>
   <i type="int" name="MAXMEM">  1800</i>
   <i type="int" name="TELESCOPE">     0</i>
   <i type="int" name="TAUPAR">     1</i>
  </separator>
  <separator name="External order field" >
   <i name="OFIELD_KAPPA">      0.00000000</i>
   <v name="OFIELD_K">      0.00000000      0.00000000      0.00000000</v>
   <i name="OFIELD_Q6_NEAR">      0.00000000</i>
   <i name="OFIELD_Q6_FAR">      0.00000000</i>
   <i name="OFIELD_A">      0.00000000</i>
  </separator>
 </parameters>
 <atominfo>
  <atoms>      53 </atoms>
  <types>       4 </types>
  <array name="atoms" >
   <dimension dim="1">ion</dimension>
   <field type="string">element</field>
   <field type="int">atomtype</field>
   <set>
    <rc><c>P </c><c>   1</c></rc>
    <rc><c>P </c><c>   1</c></rc>
    <rc><c>P </c><c>   1</c></rc>
    <rc><c>P </c><c>   1</c></rc>
    <rc><c>P </c><c>   1</c></rc>
    <rc><c>P </c><c>   1</c></rc>
    <rc><c>P </c><c>   1</c></rc>
    <rc><c>P </c><c>   1</c></rc>
    <rc><c>P </c><c>   1</c></rc>
    <rc><c>P </c><c>   1</c></rc>
    <rc><c>P </c><c>   1</c></rc>
    <rc><c>P </c><c>   1</c></rc>
    <rc><c>P </c><c>   1</c></rc>
    <rc><c>P </c><c>   1</c></rc>
    <rc><c>P </c><c>   1</c></rc>
    <rc><c>P </c><c>   1</c></rc>
    <rc><c>P </c><c>   1</c></rc>
    <rc><c>P </c><c>   1</c></rc>
    <rc><c>P </c><c>   1</c></rc>
    <rc><c>P </c><c>   1</c></rc>
    <rc><c>P </c><c>   1</c></rc>
    <rc><c>P </c><c>   1</c></rc>
    <rc><c>P </c><c>   1</c></rc>
    <rc><c>P </c><c>   1</c></rc>
    <rc><c>P </c><c>   1</c></rc>
    <rc><c>P </c><c>   1</c></rc>
    <rc><c>P </c><c>   1</c></rc>
    <rc><c>P </c><c>   1</c></rc>
    <rc><c>P </c><c>   1</c></rc>
    <rc><c>P </c><c>   1</c></rc>
    <rc><c>P </c><c>   1</c></rc>
    <rc><c>P </c><c>   1</c></rc>
    <rc><c>P </c><c>   1</c></rc>
    <rc><c>P </c><c>   1</c></rc>
    <rc><c>P </c><c>   1</c></rc>
    <rc><c>P </c><c>   1</c></rc>
    <rc><c>P </c><c>   1</c></rc>
    <rc><c>P </c><c>   1</c></rc>
    <rc><c>P </c><c>   1</c></rc>
    <rc><c>P </c><c>   1</c></rc>
    <rc><c>P </c><c>   1</c></rc>
    <rc><c>P </c><c>   1</c></rc>
    <rc><c>P </c><c>   1</c></rc>
    <rc><c>P </c><c>   1</c></rc>
    <rc><c>P </c><c>   1</c></rc>
    <rc><c>P </c><c>   1</c></rc>
    <rc><c>P </c><c>   1</c></rc>
    <rc><c>P </c><c>   1</c></rc>
    <rc><c>Ru</c><c>   2</c></rc>
    <rc><c>C </c><c>   3</c></rc>
    <rc><c>O </c><c>   4</c></rc>
    <rc><c>O </c><c>   4</c></rc>
    <rc><c>O </c><c>   4</c></rc>
   </set>
  </array>
  <array name="atomtypes" >
   <dimension dim="1">type</dimension>
   <field type="int">atomspertype</field>
   <field type="string">element</field>
   <field>mass</field>
   <field>valence</field>
   <field type="string">pseudopotential</field>
   <set>
    <rc><c>  48</c><c>P </c><c>     30.97400000</c><c>      5.00000000</c><c>  PAW_PBE P 17Jan2003                   </c></rc>
    <rc><c>   1</c><c>Ru</c><c>    101.07000000</c><c>      8.00000000</c><c> PAW_PBE Ru 06Sep2000                   </c></rc>
    <rc><c>   1</c><c>C </c><c>     12.01100000</c><c>      4.00000000</c><c> PAW_PBE C 08Apr2002                    </c></rc>
    <rc><c>   3</c><c>O </c><c>     16.00000000</c><c>      6.00000000</c><c> PAW_PBE O 08Apr2002                    </c></rc>
   </set>
  </array>
 </atominfo>
 <structure name="initialpos" >
  <crystal>
   <varray name="basis" >
    <v>      13.25440025       0.00000000       0.00000000 </v>
    <v>       0.00000000      13.12889957       0.00000000 </v>
    <v>       0.00000000       0.00000000      20.00000000 </v>
   </varray>
   <i name="volume">   3480.31379686 </i>
   <varray name="rec_basis" >
    <v>       0.07544664       0.00000000       0.00000000 </v>
    <v>       0.00000000       0.07616785       0.00000000 </v>
    <v>       0.00000000       0.00000000       0.05000000 </v>
   </varray>
  </crystal>
  <varray name="positions" >
   <v>       0.06994885       0.20699565       0.04497680 </v>
   <v>       0.19547426       0.31928258       0.04343506 </v>
   <v>       0.19234756       0.03775870       0.14936887 </v>
   <v>       0.06802716       0.15177473       0.15097671 </v>
   <v>       0.31253850       0.19838225       0.04031545 </v>
   <v>       0.44252304       0.30329101       0.02727166 </v>
   <v>       0.44154645       0.03765410       0.14907055 </v>
   <v>       0.31719513       0.15093029       0.14820324 </v>
   <v>       0.57078048       0.19590824       0.03946792 </v>
   <v>       0.69078328       0.31478203       0.03979760 </v>
   <v>       0.69138118       0.03790282       0.14927313 </v>
   <v>       0.56614476       0.15090371       0.14777792 </v>
   <v>       0.81708129       0.20359307       0.04335077 </v>
   <v>       0.94249805       0.31647956       0.04041764 </v>
   <v>       0.94231463       0.03874968       0.15047618 </v>
   <v>       0.81650533       0.15144208       0.14984346 </v>
   <v>       0.06688638       0.53758221       0.02958312 </v>
   <v>       0.19140168       0.65256274       0.02633429 </v>
   <v>       0.19610970       0.38754279       0.14804642 </v>
   <v>       0.06717196       0.49454140       0.13813723 </v>
   <v>       0.31851646       0.54146016       0.02298571 </v>
   <v>       0.44218238       0.65322413       0.02184091 </v>
   <v>       0.44166761       0.36485402       0.13180548 </v>
   <v>       0.33116543       0.49048761       0.13190944 </v>
   <v>       0.56526030       0.53975478       0.02618117 </v>
   <v>       0.69167746       0.65145994       0.02940023 </v>
   <v>       0.68927851       0.38011933       0.14416781 </v>
   <v>       0.55738208       0.48621440       0.13381246 </v>
   <v>       0.81601130       0.53684221       0.03124259 </v>
   <v>       0.94093342       0.65057658       0.03110142 </v>
   <v>       0.94263914       0.38016590       0.14395127 </v>
   <v>       0.81582756       0.49106694       0.13919160 </v>
   <v>       0.06637928       0.87154950       0.04126005 </v>
   <v>       0.19067584       0.98447687       0.04277881 </v>
   <v>       0.19286619       0.69228686       0.13530194 </v>
   <v>       0.06802304       0.80549164       0.14479566 </v>
   <v>       0.31626575       0.87289443       0.03998733 </v>
   <v>       0.44146368       0.98490748       0.04262220 </v>
   <v>       0.43821873       0.69756797       0.13332151 </v>
   <v>       0.31398199       0.80878014       0.14443785 </v>
   <v>       0.56575140       0.87205257       0.04143950 </v>
   <v>       0.69097175       0.98414115       0.04300506 </v>
   <v>       0.69120727       0.69568252       0.13752200 </v>
   <v>       0.56559705       0.80687733       0.14613020 </v>
   <v>       0.81734961       0.87305110       0.04040356 </v>
   <v>       0.94284773       0.98548349       0.04407979 </v>
   <v>       0.94074560       0.69598820       0.13906221 </v>
   <v>       0.81591019       0.80882671       0.14397300 </v>
   <v>       0.43503183       0.56805127       0.20623208 </v>
   <v>       0.33032908       0.61309456       0.27700504 </v>
   <v>       0.37966174       0.57732143       0.33234609 </v>
   <v>       0.47110207       0.53044224       0.29793274 </v>
   <v>       0.24986890       0.65703685       0.28289926 </v>
  </varray>
  <varray name="selective"  type="logical" >
   <v type="logical" >  T  T  T </v>
   <v type="logical" >  T  T  T </v>
   <v type="logical" >  T  T  T </v>
   <v type="logical" >  T  T  T </v>
   <v type="logical" >  T  T  T </v>
   <v type="logical" >  T  T  T </v>
   <v type="logical" >  T  T  T </v>
   <v type="logical" >  T  T  T </v>
   <v type="logical" >  T  T  T </v>
   <v type="logical" >  T  T  T </v>
   <v type="logical" >  T  T  T </v>
   <v type="logical" >  T  T  T </v>
   <v type="logical" >  T  T  T </v>
   <v type="logical" >  T  T  T </v>
   <v type="logical" >  T  T  T </v>
   <v type="logical" >  T  T  T </v>
   <v type="logical" >  T  T  T </v>
   <v type="logical" >  T  T  T </v>
   <v type="logical" >  T  T  T </v>
   <v type="logical" >  T  T  T </v>
   <v type="logical" >  T  T  T </v>
   <v type="logical" >  T  T  T </v>
   <v type="logical" >  T  T  T </v>
   <v type="logical" >  T  T  T </v>
   <v type="logical" >  T  T  T </v>
   <v type="logical" >  T  T  T </v>
   <v type="logical" >  T  T  T </v>
   <v type="logical" >  T  T  T </v>
   <v type="logical" >  T  T  T </v>
   <v type="logical" >  T  T  T </v>
   <v type="logical" >  T  T  T </v>
   <v type="logical" >  T  T  T </v>
   <v type="logical" >  T  T  T </v>
   <v type="logical" >  T  T  T </v>
   <v type="logical" >  T  T  T </v>
   <v type="logical" >  T  T  T </v>
   <v type="logical" >  T  T  T </v>
   <v type="logical" >  T  T  T </v>
   <v type="logical" >  T  T  T </v>
   <v type="logical" >  T  T  T </v>
   <v type="logical" >  T  T  T </v>
   <v type="logical" >  T  T  T </v>
   <v type="logical" >  T  T  T </v>
   <v type="logical" >  T  T  T </v>
   <v type="logical" >  T  T  T </v>
   <v type="logical" >  T  T  T </v>
   <v type="logical" >  T  T  T </v>
   <v type="logical" >  T  T  T </v>
   <v type="logical" >  T  T  T </v>
   <v type="logical" >  T  T  T </v>
   <v type="logical" >  T  T  T </v>
   <v type="logical" >  T  T  T </v>
   <v type="logical" >  T  T  T </v>
  </varray>
  <nose>
   <v>      -3.00000000       0.00000000       0.00010000       0.00010000 </v>
  </nose>
 </structure>
 <calculation>
  <scstep>
   <time name="diag">    0.98    1.06</time>
   <time name="diis">    3.02    3.04</time>
   <time name="orth">    0.05    0.05</time>
   <time name="total">    6.59    6.74</time>
   <energy>
    <i name="alphaZ">     89.84601993 </i>
    <i name="ewald">  26229.32194122 </i>
    <i name="hartreedc"> -35123.59382973 </i>
    <i name="XCdc">    228.18672104 </i>
    <i name="pawpsdc">   3462.86119305 </i>
    <i name="pawaedc">  -3027.84743568 </i>
    <i name="eentropy">     -0.02827168 </i>
    <i name="bandstr">   1303.61528557 </i>
    <i name="atom">  10349.21864788 </i>
    <i name="e_fr_energy">   3511.58027161 </i>
    <i name="e_wo_entrp">   3511.60854329 </i>
    <i name="e_0_energy">   3511.59440745 </i>
   </energy>
  </scstep>
  <scstep>
   <time name="diag">    0.94    0.94</time>
   <time name="diis">    3.02    3.03</time>
   <time name="orth">    0.05    0.05</time>
   <time name="total">    4.01    4.04</time>
   <energy>
    <i name="e_fr_energy">   1204.98826504 </i>
    <i name="e_wo_entrp">   1205.02474655 </i>
    <i name="e_0_energy">   1205.00650579 </i>
   </energy>
  </scstep>
  <scstep>
   <time name="diag">    0.94    0.94</time>
   <time name="diis">    3.02    3.03</time>
   <time name="orth">    0.05    0.05</time>
   <time name="total">    4.01    4.84</time>
   <energy>
    <i name="e_fr_energy">    418.15005772 </i>
    <i name="e_wo_entrp">    418.18777233 </i>
    <i name="e_0_energy">    418.16891502 </i>
   </energy>
  </scstep>
  <scstep>
   <time name="diag">    0.94    0.94</time>
   <time name="diis">    3.02    3.03</time>
   <time name="orth">    0.05    0.05</time>
   <time name="total">    4.01    4.04</time>
   <energy>
    <i name="e_fr_energy">     -2.94610878 </i>
    <i name="e_wo_entrp">     -2.92666508 </i>
    <i name="e_0_energy">     -2.93638693 </i>
   </energy>
  </scstep>
  <scstep>
   <time name="diag">    0.94    0.94</time>
   <time name="diis">    3.02    3.02</time>
   <time name="orth">    0.05    0.05</time>
   <time name="total">    4.01    4.04</time>
   <energy>
    <i name="e_fr_energy">   -173.87716903 </i>
    <i name="e_wo_entrp">   -173.87713429 </i>
    <i name="e_0_energy">   -173.87715166 </i>
   </energy>
  </scstep>
  <scstep>
   <time name="diag">    0.94    0.94</time>
   <time name="diis">    3.01    3.02</time>
   <time name="orth">    0.05    0.05</time>
   <time name="total">    4.00    4.03</time>
   <energy>
    <i name="e_fr_energy">   -238.32422875 </i>
    <i name="e_wo_entrp">   -238.30857222 </i>
    <i name="e_0_energy">   -238.31640048 </i>
   </energy>
  </scstep>
  <scstep>
   <time name="diag">    0.94    0.94</time>
   <time name="diis">    3.01    3.03</time>
   <time name="orth">    0.05    0.05</time>
   <time name="total">    4.00    4.04</time>
   <energy>
    <i name="e_fr_energy">   -263.52690511 </i>
    <i name="e_wo_entrp">   -263.49942172 </i>
    <i name="e_0_energy">   -263.51316342 </i>
   </energy>
  </scstep>
  <scstep>
   <time name="diag">    0.94    0.94</time>
   <time name="diis">    3.01    3.02</time>
   <time name="orth">    0.05    0.05</time>
   <time name="total">    4.01    4.04</time>
   <energy>
    <i name="e_fr_energy">   -274.41295948 </i>
    <i name="e_wo_entrp">   -274.39591140 </i>
    <i name="e_0_energy">   -274.40443544 </i>
   </energy>
  </scstep>
  <scstep>
   <time name="diag">    0.94    0.94</time>
   <time name="diis">    3.02    3.02</time>
   <time name="orth">    0.05    0.05</time>
   <time name="total">    4.01    4.04</time>
   <energy>
    <i name="e_fr_energy">   -279.20532581 </i>
    <i name="e_wo_entrp">   -279.19353816 </i>
    <i name="e_0_energy">   -279.19943199 </i>
   </energy>
  </scstep>
  <scstep>
   <time name="diag">    0.94    0.94</time>
   <time name="diis">    3.01    3.02</time>
   <time name="orth">    0.05    0.05</time>
   <time name="total">    4.00    4.03</time>
   <energy>
    <i name="e_fr_energy">   -281.52993298 </i>
    <i name="e_wo_entrp">   -281.51906165 </i>
    <i name="e_0_energy">   -281.52449732 </i>
   </energy>
  </scstep>
  <scstep>
   <time name="diag">    0.94    0.95</time>
   <time name="diis">    3.01    3.02</time>
   <time name="orth">    0.05    0.05</time>
   <time name="total">    4.01    4.05</time>
   <energy>
    <i name="e_fr_energy">   -282.66127829 </i>
    <i name="e_wo_entrp">   -282.65056044 </i>
    <i name="e_0_energy">   -282.65591937 </i>
   </energy>
  </scstep>
  <scstep>
   <time name="diag">    0.94    0.94</time>
   <time name="diis">    3.30    3.40</time>
   <time name="orth">    0.05    0.05</time>
   <time name="total">    4.29    4.42</time>
   <energy>
    <i name="e_fr_energy">   -283.25570485 </i>
    <i name="e_wo_entrp">   -283.24481950 </i>
    <i name="e_0_energy">   -283.25026217 </i>
   </energy>
  </scstep>
  <scstep>
   <time name="diag">    0.94    0.94</time>
   <time name="diis">    3.01    3.02</time>
   <time name="orth">    0.05    0.05</time>
   <time name="total">    4.01    4.06</time>
   <energy>
    <i name="e_fr_energy">   -283.56388284 </i>
    <i name="e_wo_entrp">   -283.55283146 </i>
    <i name="e_0_energy">   -283.55835715 </i>
   </energy>
  </scstep>
  <scstep>
   <time name="diag">    0.94    0.94</time>
   <time name="diis">    3.02    3.03</time>
   <time name="orth">    0.05    0.05</time>
   <time name="total">    4.01    4.05</time>
   <energy>
    <i name="e_fr_energy">   -283.73632066 </i>
    <i name="e_wo_entrp">   -283.72498501 </i>
    <i name="e_0_energy">   -283.73065284 </i>
   </energy>
  </scstep>
  <scstep>
   <time name="diag">    0.93    0.94</time>
   <time name="diis">    7.30    7.37</time>
   <time name="orth">    0.05    0.05</time>
   <time name="total">    8.29    8.50</time>
   <energy>
    <i name="e_fr_energy">   -283.95776265 </i>
    <i name="e_wo_entrp">   -283.94501406 </i>
    <i name="e_0_energy">   -283.95138835 </i>
   </energy>
  </scstep>
  <scstep>
   <time name="diag">    0.94    0.94</time>
   <time name="diis">    7.42    7.45</time>
   <time name="orth">    0.05    0.05</time>
   <time name="total">    8.42    8.47</time>
   <energy>
    <i name="e_fr_energy">   -283.97760051 </i>
    <i name="e_wo_entrp">   -283.96284627 </i>
    <i name="e_0_energy">   -283.97022339 </i>
   </energy>
  </scstep>
  <scstep>
   <time name="diag">    0.94    0.94</time>
   <time name="diis">    7.37    7.40</time>
   <time name="orth">    0.05    0.05</time>
   <time name="total">    8.35    8.40</time>
   <energy>
    <i name="e_fr_energy">   -283.98360140 </i>
    <i name="e_wo_entrp">   -283.96519014 </i>
    <i name="e_0_energy">   -283.97439577 </i>
   </energy>
  </scstep>
  <scstep>
   <time name="diag">    0.94    0.94</time>
   <time name="diis">    6.78    6.80</time>
   <time name="orth">    0.05    0.05</time>
   <time name="total">    7.77    7.95</time>
   <energy>
    <i name="e_fr_energy">   -283.98737500 </i>
    <i name="e_wo_entrp">   -283.96535756 </i>
    <i name="e_0_energy">   -283.97636628 </i>
   </energy>
  </scstep>
  <scstep>
   <time name="diag">    0.94    0.94</time>
   <time name="diis">    5.87    5.89</time>
   <time name="orth">    0.05    0.05</time>
   <time name="total">    6.86    6.90</time>
   <energy>
    <i name="e_fr_energy">   -280.04355433 </i>
    <i name="e_wo_entrp">   -283.96646482 </i>
    <i name="e_0_energy">   -280.03207316 </i>
   </energy>
  </scstep>
  <scstep>
   <time name="diag">    0.94    0.95</time>
   <time name="diis">    4.89    4.91</time>
   <time name="orth">    0.05    0.05</time>
   <time name="total">    7.50    8.40</time>
   <energy>
    <i name="e_fr_energy">   -280.04357547 </i>
    <i name="e_wo_entrp">   -280.02061320 </i>
    <i name="e_0_energy">   -280.03209434 </i>
   </energy>
  </scstep>
  <scstep>
   <time name="diag">    0.94    0.94</time>
   <time name="diis">    5.63    5.64</time>
   <time name="orth">    0.05    0.05</time>
   <time name="total">   10.75   10.82</time>
   <energy>
    <i name="e_fr_energy">   -289.15748878 </i>
    <i name="e_wo_entrp">   -289.15748703 </i>
    <i name="e_0_energy">   -289.15748791 </i>
   </energy>
  </scstep>
  <scstep>
   <time name="diag">    0.94    0.94</time>
   <time name="diis">    5.61    5.63</time>
   <time name="orth">    0.05    0.05</time>
   <time name="total">   10.73   10.80</time>
   <energy>
    <i name="e_fr_energy">   -291.92988530 </i>
    <i name="e_wo_entrp">   -291.92988530 </i>
    <i name="e_0_energy">   -291.92988530 </i>
   </energy>
  </scstep>
  <scstep>
   <time name="diag">    0.94    0.94</time>
   <time name="diis">    5.63    5.65</time>
   <time name="orth">    0.05    0.05</time>
   <time name="total">   10.74   10.80</time>
   <energy>
    <i name="e_fr_energy">   -291.42346918 </i>
    <i name="e_wo_entrp">   -291.42346918 </i>
    <i name="e_0_energy">   -291.42346918 </i>
   </energy>
  </scstep>
  <scstep>
   <time name="diag">    0.94    0.94</time>
   <time name="diis">    5.55    5.56</time>
   <time name="orth">    0.05    0.05</time>
   <time name="total">   10.68   10.77</time>
   <energy>
    <i name="e_fr_energy">   -291.23689874 </i>
    <i name="e_wo_entrp">   -291.23689874 </i>
    <i name="e_0_energy">   -291.23689874 </i>
   </energy>
  </scstep>
  <scstep>
   <time name="diag">    0.94    0.94</time>
   <time name="diis">    5.65    5.66</time>
   <time name="orth">    0.05    0.05</time>
   <time name="total">   10.78   10.84</time>
   <energy>
    <i name="e_fr_energy">   -291.18780752 </i>
    <i name="e_wo_entrp">   -291.18780752 </i>
    <i name="e_0_energy">   -291.18780752 </i>
   </energy>
  </scstep>
  <scstep>
   <time name="diag">    0.94    0.94</time>
   <time name="diis">    5.68    5.70</time>
   <time name="orth">    0.05    0.05</time>
   <time name="total">   10.81   10.87</time>
   <energy>
    <i name="e_fr_energy">   -287.43787639 </i>
    <i name="e_wo_entrp">   -287.43787636 </i>
    <i name="e_0_energy">   -287.43787637 </i>
   </energy>
  </scstep>
  <scstep>
   <time name="diag">    0.94    0.94</time>
   <time name="diis">    5.55    5.57</time>
   <time name="orth">    0.05    0.05</time>
   <time name="total">   10.67   10.74</time>
   <energy>
    <i name="e_fr_energy">   -287.42686857 </i>
    <i name="e_wo_entrp">   -287.42686062 </i>
    <i name="e_0_energy">   -287.42686459 </i>
   </energy>
  </scstep>
  <scstep>
   <time name="diag">    0.94    0.94</time>
   <time name="diis">    5.65    5.67</time>
   <time name="orth">    0.05    0.05</time>
   <time name="total">   10.77   10.83</time>
   <energy>
    <i name="e_fr_energy">   -287.42497413 </i>
    <i name="e_wo_entrp">   -287.42495216 </i>
    <i name="e_0_energy">   -287.42496314 </i>
   </energy>
  </scstep>
  <scstep>
   <time name="diag">    0.94    0.94</time>
   <time name="diis">    5.77    5.79</time>
   <time name="orth">    0.05    0.05</time>
   <time name="total">   10.91   10.97</time>
   <energy>
    <i name="e_fr_energy">   -291.17097098 </i>
    <i name="e_wo_entrp">   -291.17097098 </i>
    <i name="e_0_energy">   -291.17097098 </i>
   </energy>
  </scstep>
  <scstep>
   <time name="diag">    0.94    0.94</time>
   <time name="diis">    5.87    5.89</time>
   <time name="orth">    0.05    0.05</time>
   <time name="total">   11.00   11.06</time>
   <energy>
    <i name="e_fr_energy">   -287.42398982 </i>
    <i name="e_wo_entrp">   -287.42398713 </i>
    <i name="e_0_energy">   -287.42398848 </i>
   </energy>
  </scstep>
  <scstep>
   <time name="diag">    0.94    0.94</time>
   <time name="diis">    5.62    5.64</time>
   <time name="orth">    0.05    0.05</time>
   <time name="total">   10.75   10.82</time>
   <energy>
    <i name="e_fr_energy">   -287.42396578 </i>
    <i name="e_wo_entrp">   -287.42396232 </i>
    <i name="e_0_energy">   -287.42396405 </i>
   </energy>
  </scstep>
  <scstep>
   <time name="diag">    0.94    0.94</time>
   <time name="diis">    5.62    5.64</time>
   <time name="orth">    0.05    0.05</time>
   <time name="total">   10.76   10.82</time>
   <energy>
    <i name="e_fr_energy">   -287.42397284 </i>
    <i name="e_wo_entrp">   -287.42396876 </i>
    <i name="e_0_energy">   -287.42397080 </i>
   </energy>
  </scstep>
  <scstep>
   <time name="diag">    0.94    0.94</time>
   <time name="diis">    5.05    5.06</time>
   <time name="orth">    0.05    0.05</time>
   <time name="total">   10.20   10.24</time>
   <energy>
    <i name="e_fr_energy">   -287.42397495 </i>
    <i name="e_wo_entrp">   -287.42397101 </i>
    <i name="e_0_energy">   -287.42397298 </i>
   </energy>
  </scstep>
  <scstep>
   <time name="diag">    0.94    0.94</time>
   <time name="diis">    3.91    3.92</time>
   <time name="orth">    0.05    0.05</time>
   <time name="total">    9.74    9.80</time>
   <energy>
    <i name="alphaZ">     89.84601993 </i>
    <i name="ewald">  26577.28775893 </i>
    <i name="h  <structure>
   <crystal>
    <varray name="basis" >
     <v>      13.25440025       0.00000000       0.00000000 </v>
     <v>       0.00000000      13.12889957       0.00000000 </v>
     <v>       0.00000000       0.00000000      20.00000000 </v>
    </varray>
    <i name="volume">   3480.31379686 </i>
    <varray name="rec_basis" >
     <v>       0.07544664       0.00000000       0.00000000 </v>
     <v>       0.00000000       0.07616785       0.00000000 </v>
     <v>       0.00000000       0.00000000       0.05000000 </v>
    </varray>
   </crystal>
   <varray name="position   <time name="total">   10.65   10.69</time>
   <energy>
    <i name="e_fr_energy">   -289.49599229 </i>
    <i name="e_wo_entrp">   -289.49500097 </i>
      <structure>
   <crystal>
    <varray name="basis" >
     <v>      13.25440025       0.00000000       0.00000000 </v>
     <v>       0.00000000      13.12889957       0.00000000 </v>
     <v>       0.00000000       0.00000000      20.00000000 </v>
    </varray>
    <i name="volume">   3480.31379686 </i>
    <varray name="rec_basis" >
     <v>       0.07544664       0.00000000       0.00000000 </v>
     <v>       0.00000000       0.07616785       0.00000000 </v>
     <v>       0.00000000      <time name="diis">    5.54    5.56</time>
   <time name="orth">    0.05    0.05</time>
   <time name="total">   10.67   10.74</time>
   <energy>
    <i name="e_fr_energy">   -289.49585446 </i>
    <i name="e_wo_entrp">   -289.49524503 </i>
    <i name="e_0_energy">   -289.49554974 </i>
   </energy>
  </scstep>
  <scstep>
   <time name="diag">    0.93    0.94</time>
   <time name="diis">    5.03    5.04</time>
   <time name="orth">    0.05    0.05</time>
   <time name="total">   10.16   10.49</time>
   <energy>
    <i name="e_fr_energy">   -289.49596373 </i>
    <i name="e_wo_entrp">   -289.49537438 </i>
    <i name="e_0_energy">   -289.49566905 </i>
   </energy>
  </scstep>
  <scstep>
   <time name="diag">    0.93    0.93</time>
   <time name="diis">    4.15    4.17</time>
   <time name="orth">    0.05    0.05</time>
   <time name="total">    9.28    9.34</time>
   <energy>
    <i name="e_fr_energy">   -289.49596954 </i>
    <i name="e_wo_entrp">   -289.49540126 </i>
    <i name="e_0_energy">   -289.49568540 </i>
   </energy>
  </scstep>
  <scstep>
   <time name="diag">    0.93    0.93</time>
   <time name="diis">    4.03    4.04</time>
   <time name="orth">    0.05    0.05</time>
   <time name="total">    9.16    9.86</time>
   <energy>
    <i name="e_fr_energy">   -289.49597136 </i>
    <i name="e_wo_entrp">   -289.49540810 </i>
    <i name="e_0_energy">   -289.49568973 </i>
   </energy>
  </scstep>
  <scstep>
   <time name="diag">    0.93    0.93</time>
   <time name="diis">    3.76    3.77</time>
   <time name="orth">    0.05    0.05</time>
   <time name="total">    8.88    9.00</time>
   <energy>
    <i name="e_fr_energy">   -289.49597990 </i>
    <i name="e_wo_entrp">   -289.49542724 </i>
    <i name="e_0_energy">   -289.49570357 </i>
   </energy>
  </scstep>
  <scstep>
   <time name="diag">    0.93    0.93</time>
   <time name="diis">    3.64    3.65</time>
   <time name="orth">    0.05    0.05</time>
   <time name="total">    7.14    7.18</time>
   <energy>
    <i name="alphaZ">     89.84601993 </i>
    <i name="ewald">  26632.84705951 </i>
    <i name="hartreedc"> -35741.62266187 </i>
    <i name="XCdc">    239.53068682 </i>
    <i name="pawpsdc">   4046.84665342 </i>
    <i name="pawaedc">  -3619.97263990 </i>
    <i name="eentropy">     -0.00055388 </i>
    <i name="bandstr">  -2286.18919169 </i>
    <i name="atom">  10349.21864788 </i>
    <i name="e_fr_energy">   -289.49597977 </i>
    <i name="e_wo_entrp">   -289.49542590 </i>
    <i name="e_0_energy">   -289.49570283 </i>
   </energy>
  </scstep>
  <dipole>
   <v name="dipole">      0.00000000       0.00000000       0.42718534 </v>
   <i name="Tr[quadrupol]">  -8743.13950986 </i>
   <i name="Echarged">      0.00000000 </i>
   <i name="Edipol_quadrupol">      0.00000000 </i>
   <i name="Eion">      0.00000000 </i>
  </dipole>
  <structure>
   <crystal>
    <varray name="basis" >
     <v>      13.25440025       0.00000000       0.00000000 </v>
     <v>       0.00000000      13.12889957       0.00000000 </v>
     <v>       0.00000000       0.00000000      20.00000000 </v>
    </varray>
    <i name="volume">   3480.31379686 </i>
    <varray name="rec_basis" >
     <v>       0.07544664       0.00000000       0.00000000 </v>
     <v>       0.00000000       0.07616785       0.00000000 </v>
     <v>       0.00000000       0.00000000       0.05000000 </v>
    </varray>
   </crystal>
   <varray name="positions" >
    <v>       0.06627074       0.20968299       0.04352257 </v>
    <v>       0.19257219       0.32088006       0.04288113 </v>
    <v>       0.19003125       0.04010145       0.14690826 </v>
    <v>       0.06533800       0.15350039       0.14917945 </v>
    <v>       0.31002044       0.19989364       0.03830650 </v>
    <v>       0.44016661       0.30560475       0.02538679 </v>
    <v>       0.43995467       0.04005168       0.14692557 </v>
    <v>       0.31524447       0.15292769       0.14617347 </v>
    <v>       0.57022484       0.19927882       0.03736905 </v>
    <v>       0.68883953       0.31934027       0.04076095 </v>
    <v>       0.68932621       0.04035709       0.14732235 </v>
    <v>       0.56436678       0.15330406       0.14561066 </v>
    <v>       0.81480444       0.20817483       0.04288862 </v>
    <v>       0.94008130       0.32077240       0.04123102 </v>
    <v>       0.93967537       0.04074401       0.14874298 </v>
    <v>       0.81422979       0.15360067       0.14896499 </v>
    <v>       0.06512499       0.53946172       0.03406312 </v>
    <v>       0.18942903       0.65375642       0.03152807 </v>
    <v>       0.19367862       0.38396256       0.14850554 </v>
    <v>       0.06576225       0.49334811       0.14199084 </v>
    <v>       0.31612381       0.54262172       0.02835670 </v>
    <v>       0.43908008       0.65551056       0.02720728 </v>
    <v>       0.44013405       0.36156349       0.13005182 </v>
    <v>       0.32925398       0.48670069       0.13534301 </v>
    <v>       0.56316642       0.54287929       0.02716677 </v>
    <v>       0.69000830       0.65363239       0.03295591 </v>
    <v>       0.68748703       0.38091837       0.14685083 </v>
    <v>       0.55438406       0.48354748       0.13297089 </v>
    <v>       0.81422631       0.53912638       0.03445500 </v>
    <v>       0.93949917       0.65238832       0.03450248 </v>
    <v>       0.94032043       0.38013319       0.14579486 </v>
    <v>       0.81416179       0.49243850       0.14210806 </v>
    <v>       0.06367170       0.87407705       0.04006843 </v>
    <v>       0.18832972       0.98692736       0.04037035 </v>
    <v>       0.19001615       0.70096271       0.13908276 </v>
    <v>       0.06470117       0.81313815       0.14468444 </v>
    <v>       0.31433316       0.87534736       0.03913881 </v>
    <v>       0.43996342       0.98729481       0.04062205 </v>
    <v>       0.43684924       0.70379321       0.13718295 </v>
    <v>       0.31229667       0.81645578       0.14450250 </v>
    <v>       0.56423756       0.87391664       0.04068629 </v>
    <v>       0.68993719       0.98567152       0.04108350 </v>
    <v>       0.68841320       0.69952383       0.14082082 </v>
    <v>       0.56466422       0.81321805       0.14625094 </v>
    <v>       0.81507832       0.87350854       0.04016854 </v>
    <v>       0.93927022       0.98722814       0.04229926 </v>  <energy>
   <i name="e_fr_energy">   -291.14187632 </i>
   <i name="e_wo_entrp">   -291.14187632 </i>
   <i name="e_0_energy">     -0.00000000 </i>
  </energy>
  <time name="totalsc">  449.38  454.57</time>
 </calculation>
.61712901       0.27172881 </v>
    <v>       0.51058742       0.57329931       0.29055749 </v>
    <v>       0.50903254       0.48553373       0.27772116 </v>
    <v>       0.27077111       0.64795800       0.30124016 </v>
   </varray>
  </structure>
  <varray name="forces" >
   <v>      -0.01389103       0.01291966      -0.02452167 </v>
   <v>      -0.02578051      -0.01605351       0.02288535 </v>
   <v>       0.00597319       0.00522019       0.01015875 </v>
   <v>      -0.00350222      -0.01513959       0.0  <energy>
   <i name="e_fr_energy">   -288.89795292 </i>
   <i name="e_wo_entrp">   -287.41957544 </i>
   <i name="e_0_energy">     -0.00000388 </i>
  </energy>
  <time name="totalsc">  474.67  478.82</time>
 </calculation>
       0.01817120      -0.00126403 </v>
   <v>       0.06338368      -0.00353101      -0.04832625 </v>
   <v>       0.00264973      -0.06972486      -0.05588761 </v>
   <v>      -0.00444786       0.01817109       0.00933170 </v>
   <v>      -0.02319140       0.00611493       0.00812889 </v>
   <v>      -0.02713118      -0.02649450      -0.01286423 </v>
   <v>       0.00054122       0.01239737      -0.01265451 </v>
   <v>      -0.00117125      -0.00113206       0.00838975 </v>
   <v>      -0.00044283      -0.00116067       0.01758058 </v>
   <v>      -0.00355431      -0.00133030      -0.01163033 </v>
   <v>       0.00229695      -0.02871020      -0.01042769 </v>
   <v>       0.02914998       0.00860997      -0.02843420 </v>
   <v>       0.00658519      -0.01751691       0.02339641 </v>
   <v>      -0.03471108      -0.04742321      -0.00419798 </v>
   <v>      -0.01239281       0.00257169       0.07178265 </v>
   <v>      -0.05217908      -0.08004726      -0.08147370 </v>
   <v>      -0.06158535      -0.32985136      -0.46472514 </v>
   <v>       0.02565966       0.05186926       0.05912939 </v>
   <v>       0.02967704      -0.01063077      -0.03658977 </v>
   <v>       0.10495184       0.06638008      -0.01194703 </v>
   <v>      -0.23788679       0.17797652       0.13439371 </v>
   <v>       0.00321699      -0.00094187      -0.03284733 </v>
   <v>      -0.01550210       0.00095293      -0.02567900 </v>
   <v>      -0.00061696       0.01148654       0.00224640 </v>
   <v>      -0.00219276      -0.04908849       0.04796579 </v>
   <v>       0.00837224       0.00217518      -0.01960583 </v>
   <v>      -0.03355196      -0.00695563      -0.03049984 </v>
   <v>      -0.01113505       0.05338320      -0.00658102 </v>
   <v>      -0.00221633      -0.01204180       0.01559846 </v>
   <v>      -0.03742744       0.02121603       0.02680699 </v>
   <v>       0.01147025      -0.01393602      -0.00992555 </v>
   <v>      -0.02120932       0.30771844      -0.06261471 </v>
   <v>       0.08097562       0.00966088      -0.06361150 </v>
   <v>       0.04204487       0.01277139       0.01722956 </v>
   <v>       0.06966737      -0.00003560      -0.05421275 </v>
   <v>      -0.02317805       0.01454627      -0.02386343 </v>
   <v>      -0.07185328      -0.00286746      -0.01974105 </v>
   <v>      -0.02183625       0.00367712      -0.02363528 </v>
   <v>      -0.02016117      -0.00536684      -0.02550659 </v>
   <v>      -0.00053347       0.00379764       0.02753729 </v>
   <v>       0.03418615       0.00354856       0.03310535 </v>
   <v>      -2.52412424       0.69898833      -2.09909374 </v>
   <v>       1.58859027      -0.57838993      -2.68730490 </v>
   <v>       2.93427524      11.76456434       4.93541863 </v>
   <v>       0.11308839     -12.77715546      -1.47827421 </v>
   <v>      -1.93595468       0.83810634       1.90142813 </v>
  </varray>
  <varray name="stress" >
   <v>       8.25561525      -0.95134792       1.63755336 </v>
   <v>      -0.95134790      12.53957661       1.20959628 </v>
   <v>       1.63755331       1.20959627       3.21032245 </v>
  </varray>
  <energy>
   <i name="e_fr_energy">   -289.49120858 </i>
   <i name="e_wo_entrp">   -289.49093164 </i>
   <i name="e_0_energy">     -0.00055388 </i>
  </energy>
  <time name="totalsc">  4   <time name="diag">    0.94    0.94</time>
   <time name="diis">    5.28    5.30</time>
   <time name="ort   <time name="diis">    5   <time name="diis">    6.31    6.32</time>
   <time name="orth">    0.05    0.05</time>
   <time name="total">   11.43   11.49</time>
   <energy>
    <i name="alphaZ">     89.84601993 </i>
    <i name="ewald">  26277.27813019 </i>
    <i name="hartreedc"> -35434.57497116 </i>
    <i name="XCdc">    237.36078278 </i>
    <i name="pawpsdc">   4067.22631881 </i>
    <i name="pawaedc">  -3640.22489488 </i>
    <i name="eentropy">     -0.00000000 </i>
    <i name="bandstr">  -2222.63447029 </i>
    <i name="atom">  10349.21864788 </i>
    <i name="e_fr_energy">   -276.50443673 </i>
    <i name="e_wo_entrp">   -276.50443673   <time name="diag">    0.94    0.94</time>
   <time name="diis">    5.33    5.34</time>
   <time name="ort   <time name="diis">    5   <time name="diis">    5.52    5.54</time>
   <time name="orth">    0.05    0.05</time>
   <time name="total">   10.65   10.70</time>
   <energy>
    <i name="e_fr_energy">   -289.38757129 </i>
    <i name="e_wo_entrp">   -289.38757129   <time name="diag">    0.94    0.94</time>
   <time name="diis">    6.18    6.19</time>
   <time name="ort   <time name="diis">    5   <time name="diis">    5.86    5.88</time>
   <time name="orth">    0.05    0.05</time>
   <time name="total">   10.98   11.05</time>
   <energy>
    <i name="e_fr_energy">   -288.77088294 </i>
    <i name="e_wo_entrp">   -288.77088294   <time name="diag">    0.94    0.94</time>
   <time name="diis">    5.29    5.30</time>
   <time name="ort   <time name="diis">    5   <time name="diis">    6.41    6.43</time>
   <time name="orth">    0.05    0.05</time>
   <time name="total">   11.54   11.59</time>
   <energy>
    <i name="e_fr_energy">   -288.55520968 </i>
    <i name="e_wo_entrp">   -288.55520968 </i>
    <i name="e_0_energy">   -288.555209   <time name="diis">    5.42    5.43</time>
   <time name="ort   <time name="diis">    5   <time name="diis">    5.40    5.41</time>
   <time name="orth">    0.05    0.05</time>
   <time name="total">   10.53   10.71</time>
   <energy>
    <i name="e_fr_energy">   -288.60688370 </i>
    <i name="e_wo_entrp">   -288.60688370 </i>
    <i name="e_0_energy">   -288.606883   <time name="diis">    5.34    5.35</time>
   <time name="ort   <time name="diis">    5   <time name="diis">    5.49    5.50</time>
   <time name="orth">    0.05    0.05</time>
   <time name="total">   10.62   10.68</time>
   <energy>
    <i name="e_fr_energy">   -288.47009522 </i>
    <i name="e_wo_entrp">   -288.47009522 </i>
    <i name="e_0_energy">   -288.470095   <time name="diis">    5.86    5.88</time>
   <time name="ort   <time name="diis">    5   <time name="diis">    5.54    5.55</time>
   <time name="orth">    0.05    0.05</time>
   <time name="total">   10.66   10.72</time>
   <energy>
    <i name="e_fr_energy">   -288.47489166 </i>
    <i name="e_wo_entrp">   -288.47489166 </i>
    <i name="e_0_energy">   -288.474891   <time name="diis">    5.00    5.02</time>
   <time name="ort   <time name="diis">    5   <time name="diis">    6.29    6.30</time>
   <time name="orth">    0.05    0.05</time>
   <time name="total">   11.42   11.47</time>
   <energy>
    <i name="e_fr_energy">   -288.47131179 </i>
    <i name="e_wo_entrp">   -288.47131179 </i>
    <i name="e_0_energy">   -288.471311   <time name="diis">    4.89    4.91</time>   <time name="diag   <time name="diis">    5   <time name="diis">    5.45    5.47</time>
   <time name="orth">    0.05    0.05</time>
   <time name="total">   10.60   10.65</time>
   <energy>
    <i name="e_fr_energy">   -288.46143152 </i>
    <i name="e_wo_entrp">   -288.46143152 </i>
    <i name="e_0_energy">   -288.461431   <time name="diis">    4.97    4.98</time>   <time name="diag   <time name="diis">    6   <time name="diis">    5.54    5.56</time>
   <time name="orth">    0.05    0.05</time>
   <time name="total">   10.67   10.73</time>
   <energy>
    <i name="e_fr_energy">   -288.46364976 </i>
    <i name="e_wo_entrp">   -288.46364976 </i>
    <i name="e_0_energy">   -288.463649   <time name="diis">    4.24    4.25</time>   <time name="diag   <time name="diis">    5   <time name="diis">    5.61    5.63</time>
   <time name="orth">    0.05    0.05</time>
   <time name="total">   10.74   10.80</time>
   <energy>
    <i name="e_fr_energy">   -288.46366814 </i>
    <i name="e_wo_entrp">   -288.46366814 </i>
    <i name="e_0_energy">   -288.46366814 </i>
   </energy>
  </scstep>
  <scstep>
   <time name="diag   <time name="diis">    5   <time name="diis">    5.75    5.77</time>
   <time name="orth">    0.05    0.05</time>
   <time name="total">   10.87   10.94</time>
   <energy>
    <i name="e_fr_energy">   -288.46395698 </i>
    <i name="e_wo_entrp">   -288.46395698 </i>
    <i name="e_0_energy">   -288.46395698 </i>
   </energy>
  </scstep>
  <scstep>
   <time name="diag   <time name="diis">    5   <time name="diis">    5.20    5.22</time>
   <time name="orth">    0.05    0.05</time>
   <time name="total">   10.34   10.40</time>
   <energy>
    <i name="e_fr_energy">   -288.46391340 </i>
    <i name="e_wo_entrp">   -288.46391340 </i>
    <i name="e_0_energy">   -288.46391340 </i>
   </energy>
  </scstep>
  <scstep>
   <time name="diag   <time name="diis">    5   <time name="diis">    5.36    5.37</time>
   <time name="orth">    0.05    0.05</time>
   <time name="total">   10.49   10.55</time>
   <energy>
    <i name="e_fr_energy">   -288.46420273 </i>
    <i name="e_wo_entrp">   -288.46420273 </i>
    <i name="e_0_energy">   -288.46420273 </i>
   </energ   <time name="diag">    0   <time name="diag   <time name="diis">    5   <time name="diis">    5.08    5.10</time>
   <time name="orth">    0.05    0.05</time>
   <time name="total">   10.22   10.27</time>
   <energy>
    <i nam  <structure>
   <crystal>
    <varray name="basis" >
     <v>      13.25440025       0.00000000       0.00000000 </v>
     <v>       0.00000000      13.12889957       0.00000000 </v>
     <v>       0.00000000       <time name="diis">    4.76    4.77</time>
   <time name="orth">    0.05    0.05</time>
   <time name="total">    9.90    9.95</time>
   <energy>
    <i name="e_fr_energy">   -288.46447149 </i>
    <i name="e_wo_entrp">   -288.46447149 </i>
    <i name="e_0_energy">   -288.46447149 </i>
   </energ   <time name="diag">    0   <time name="diag   <time name="diis">    4   <time name="diis">    4.78    4.80</time>
   <time name="orth">    0.05    0.05</time>
   <time name="total">    9.91    9.97</time>
   <energy>
    <i name="e_fr_energy">   -288.46468141 </i>
    <i name="e_wo_entrp">   -288.46468141 </i>
    <i name="e_0_energy">   -288.46468141 </i>
   </energ   <time name="diag">    0   <time name="diag   <time name="diis">    3   <time name="diis">    4.98    5.00</time>
   <time name="orth">    0.05    0.05</time>
   <time name="total">   10.18   10.41</time>
   <energy>
    <i name="e_fr_energy">   -288.46533863 </i>
    <i name="e_wo_entrp">   -288.46533863 </i>
    <i name="e_0_energy">   -288.46533863 </i>
   </energy>
  </scstep>
  <scstep>
   <time name="diag">    0.94    0.94</time>
   <time name="diis">    5.21    5.23</time>
   <time name="orth">    0.05    0.05</time>
   <time name="total">   10.35   10.41</time>
   <energy>
    <i name="e_fr_energy">   -288.46327544 </i>
    <i name="e_wo_entrp">   -288.46327544 </i>
    <i name="e_0_energy">   -288.46327544 </i>
   </energy>
  </scstep>
  <scstep>
   <time name="diag">    0.94    0.94</time>
   <time name="diis">    5.09    5.11</time>
   <time name="orth">    0.05    0.05</time>
   <time name="total">   10.24   10.28</time>
   <energy>
    <i name="e_fr_energy">   -288.46251948 </i>
    <i name="e_wo_entrp">  <structure>
   <crystal>
    <varray name="basis" >
     <v>      13.25440025       0.00000000       0.00000000 </v>
     <v>       0.00000000      13.12889957       0.00000000 </v>
     <v>       0.00000000       0.00000000      20.00000000 </v>
    </varray>
    <i name="volume">   3480.31379686 </i>
    <varray name="rec_basis" >
     <v>       0.07544664       0.00000000       0.00000000 </v>
     <v>       0.00000000       0.07616785       0.00000000 </v>
     <v>    <time name="diag">    0.94    0.94</time>
   <time name="diis">    5.29    5.31</time>
   <time name="orth">    0.05    0.05</time>
   <time name="total">   10.45   11.29</time>
   <energy>
    <i name="e_fr_energy">   -288.46361064 </i>
    <i name="e_wo_entrp">   -288.46361064 </i>
    <i name="e_0_energy  <structure>
   <crystal>
    <varray name="basis" >
     <v>      13.25440025       0.00000000       0.   <time name="diis">    4.33    4.34</time>
   <time name="orth">    0.05    0.05</time>
   <time name="total">    9.48    9.53</time>
   <energy>
    <i name="e_fr_energy">   -288.46361364 </i>
    <i name="e_wo_entrp">   -288.46361364 </i>
    <i name="e_0_energy">   -288.46361364 </i>
   </energy>
  </scstep>
  <scstep>
   <time name="diag">    0.94    0.94</time>
   <time name="diis">    4.73    4.74</time>
   <time name="orth">    0.05    0.05</time>
   <time name="total">    9.89    9.93</time>
   <energy>
    <i name="e_fr_energy">   -288.46348013 </i>
    <i name="e_wo_entrp">   -288.46348013 </i>
    <i name="e_0_energy">   -288.46348013 </i>
   </energy>
  </scstep>
  <scstep>
   <time name="diag">    0.94    0.94</time>
   <time name="diis">    4.59    4.60</time>
   <time name="orth">    0.05    0.05</time>
   <time name="total">    9.76    9.80</time>
   <energy>
    <i name="e_fr_energy">   -288.46360775 </i>
    <i name="e_wo_entrp">   -288.46360775 </i>
    <i name="e_0_energy">   -288.46360775 </i>
   </energy>
  </scstep>
  <scstep>
   <time name="diag">    0.94    0.94</time>
   <time name="diis">    3.96    3.98</time>
   <time name="orth">    0.05    0.05</time>
   <time name="total">    9.12    9.19</time>
   <energy>
    <i name="e_fr_energy">   -288.46360127 </i>
    <i name="e_wo_entrp">   -288.46360127 </i>
    <i name="e_0_energy">   -288.46360127 </i>
   </energy>
  </scstep>
  <scstep>
   <time name="diag">    0.94    0.94</time>
   <time name="diis">    4.65    4.66</time>
   <time name="orth">    0.05    0.05</time>
   <time name="total">    9.83    9.88</time>
   <energy>
    <i name="e_fr_energy">   -288.46358457 </i>
    <i name="e_wo_entrp">   -288.46358457 </i>
    <i name="e_0_energy">   -288.46358457 </i>
   </energy>
  </scstep>
  <scstep>
   <time name="diag">    0.93    0.94</time>
   <time name="diis">    4.53    4.54</time>
   <time name="orth">    0.05    0.05</time>
   <time name="total">    9.73    9.92</time>
   <energy>
    <i name="e_fr_energy">   -288.46359878 </i>
    <i name="e_wo_entrp">   -288.46359878 </i>
    <i name="e_0_energy">   -288.46359878 </i>
   </energy>
  </scstep>
  <scstep>
   <time name="diag">    0.93    0.94</time>
   <time name="diis">    4.68    4.69</time>
   <time name="orth">    0.05    0.05</time>
   <time name="total">    9.88    9.92</time>
   <energy>
    <i name="e_fr_energy">   -288.46350569 </i>
    <i name="e_wo_entrp">   -288.46350569 </i>
    <i name="e_0_energy">   -288.46350569 </i>
   </energy>
  </scstep>
  <scstep>
   <time name="diag">    0.93    0.94</time>
   <time name="diis">    4.47    4.49</time>
   <time name="orth">    0.05    0.05</time>
   <time name="total">    9.67    9.73</time>
   <energy>
    <i name="e_fr_energy">   -288.46358962 </i>
    <i name="e_wo_entrp">   -288.46358962 </i>
    <i name="e_0_energy">   -288.46358962 </i>
   </energy>
  </scstep>
  <scstep>
   <time name="diag">    0.93    0.94</time>
   <time name="diis">    4.33    4.34</time>
   <time name="orth">    0.05    0.05</time>
   <time name="total">    9.54    9.58</time>
   <energy>
    <i name="e_fr_energy">   -288.46358382 </i>
    <i name="e_wo_entrp">   -288.46358382 </i>
    <i name="e_0_energy">   -288.46358382 </i>
   </energy>
  </scstep>
  <scstep>
   <time name="diag">    0.93    0.94</time>
   <time name="diis">    3.48    3.49</time>
   <time name="orth">    0.05    0.05</time>
   <time name="total">    8.70    8.74</time>
   <energy>
    <i name="e_fr_energy">   -288.46359525 </i>
    <i name="e_wo_entrp">   -288.46359525 </i>
    <i name="e_0_energy">   -288.46359525 </i>
   </energy>
  </scstep>
  <scstep>
   <time name="diag">    0.94    0.94</time>
   <time name="diis">    3.58    3.60</time>
   <time name="orth">    0.05    0.05</time>
   <time name="total">    8.80    8.85</time>
   <energy>
    <i name="e_fr_energy">   -288.46359385 </i>
    <i name="e_wo_entrp">   -288.46359385 </i>
    <i name="e_0_energy">   -288.46359385 </i>
   </energy>
  </scstep>
  <scstep>
   <time name="diag">    0.93    0.94</time>
   <time name="diis">    3.15    3.16</time>
   <time name="orth">    0.05    0.05</time>
   <time name="total">    8.38    8.42</time>
   <energy>
    <i name="e_fr_energy">   -288.46359606 </i>
    <i name="e_wo_entrp">   -288.46359606 </i>
    <i name="e_0_energy">   -288.46359606 </i>
   </energy>
  </scstep>
  <scstep>
   <time name="diag">    0.93    0.94</time>
   <time name="diis">    2.96    2.97</time>
   <time name="orth">    0.05    0.05</time>
   <time name="total">    6.47    6.50</time>
   <energy>
    <i name="alphaZ">     89.84601993 </i>
    <i name="ewald">  26277.27813019 </i>
    <i name="hartreedc"> -35381.38496309 </i>
    <i name="XCdc">    236.10080485 </i>
    <i name="pawpsdc">   3908.14  <energy>
   <i name="e_fr_energy">   -291.12033791 </i>
   <i name="e_wo_entrp">   -291.12033791 </i>
   <i name="e_0_energy">     -0.00000000 </i>
  </energy>
  <time name="totalsc">  399.77  401.26</time>
 </calculation>
626 </i>
    <i name="e_wo_entrp">   -288.46359626 </i>
    <i name="e_0_energy">   -288.46359626 </i>
   </energy>
  </scstep>
  <dipole>
   <v name="dipole">      0.00000000       0.00000000       1.32396369 </v>
   <i name="Tr[quadrupol]">  -8675.32157256 </i>
   <i name="Echarged">      0.00000000 </i>
   <i name="Edipol_quadrupol">      0.00000000 </i>
   <i name="Eion">      0.00000000 </i>
  </dipole>
  <structure>
   <crystal>
    <varray name="basis" >
     <v>      13.25440025       0.00000000       0.00000000 </v>
     <v>       0.00000000      13.12889957       0.00000000 </v>
     <v>       0.00000000       0.00000000      20.00000000 </v>
    </varray>
    <i name="volume">   3480.31379686 </i>
    <varray name="rec_basis" >
     <v>       0.07544664       0.00000000       0.00000000 </v>
     <v>       0.00000000       0.07616785       0.00000000 </v>
     <v>       0.00000000       0.00000000       0.05000000 </v>
    </varray>
   </crystal>
   <varray name="positions" >
    <v>       0.06746288       0.20881515       0.04400110 </v>
    <v>       0.19354480       0.32039203       0.04313002 </v>
    <v>       0.19084706       0.03925084       0.14774774 </v>
    <v>       0.06625301       0.15288964       0.14979351 </v>
    <v>       0.31087507       0.19940381       0.03902688 </v>
    <v>       0.44109776       0.30466344       0.02608954 </v>
    <v>       0.44048005       0.03920049       0.14763905 </v>
    <v>       0.31593137       0.15227135       0.14686316 </v>
    <v>       0.57054983       0.19806189       0.03804655 </v>
    <v>       0.68946193       0.31774202       0.04046669 </v>
    <v>       0.69004517       0.03949081       0.1  <energy>
   <i name="e_fr_energy">   -289.91986834 </i>
   <i name="e_wo_entrp">   -289.91986834 </i>
   <i name="e_0_energy">     -0.00000000 </i>
  </energy>
  <time name="totalsc">  398.55  400.36</time>
 </calculation>
8874       0.04006296       0.14933818 </v>
    <v>       0.81500692       0.15288682       0.14925080 </v>
    <v>       0.06571823       0.53879197       0.03252977 </v>
    <v>       0.19011233       0.65335020       0.02977085 </v>
    <v>       0.19477275       0.38515303       0.14827849 </v>
    <v>       0.06618956       0.49373413       0.14065009 </v>
    <v>       0.31692497       0.54210933       0.02660935 </v>
    <v>       0.44012801       0.65482741       0.02547902 </v>
    <v>       0.44045957       0.36283635       0.13048746 </v>
    <v  <energy>
   <i name="e_fr_energy">   -290.01946881 </i>
   <i name="e_wo_entrp">   -290.01946881 </i>
   <i name="e_0_energy">     -0.00000000 </i>
  </energy>
  <time name="totalsc">  376.03  378.21</time>
 </calculation>
42       0.14589399 </v>
    <v>       0.55496683       0.48469807       0.13330739 </v>
    <v>       0.81484686       0.53833371       0.03333954 </v>
    <v>       0.93997944       0.65176387       0.03333948 </v>
    <v>       0.94114365       0.38016155       0.14516444 </v>
    <v>       0.81472959       0.49186023       0.14112318 </v>
    <v>       0.06467740       0.87325109       0.04048551 </v>
    <v>       0.18903333       0.98609126       0.04113098 </v>
    <v>       0.19103792       0.69805653       0.13773771 </v>
    <v>       0.06578743       0.81050202       0.14470435 </v>
    <v>       0.31488910       0.87455872       0.03954804 </v>
    <v>       0.44050204       0.98642913       0.04133767 </v>
    <v>       0.43729176       0.70227620       0.13576271 </v>
    <v>       0.31308467       0.81395463       0.14431292 </v>
    <v>       0.56485089       0.87326608       0.04104132 </v>
    <v>       0.69046429       0.98516112       0.04167752 </v>
    <v>       0.68930633       0.69817584       0.13966605 </v>
    <v>       0.56479412       0.81106919       0.14609570 </v>
    <v>       0.81576370       0.87337388       0.04025532 </v>
    <v>       0.94046581       0.98664422       0.04292259 </v>
    <v>       0.93975899       0.69947052       0.14089471 </v>
    <v>       0.81431952       0.81143757       0.14455970 </v>
    <v>       0.43443911       0.57106523       0.20452530 </v>
    <v>       0.33760911       0.61299868       0.27039014 </v>
    <v>       0.46082306       0.60087673       0.31447799 </v>
    <v>       0.50499264       0.47301717       0.28007734 </v>
    <v>       0.25949928       0.65334881       0.29698830 </v>
   </varray>
  </structure>
  <varray name="forces" >
   <v>       0.03270486       0.03179405       0.05417568 </v>
   <v>       0.06343795       0.02965687      -0.06285786 </v>
   <v>      -0.00036173      -0.01259971      -0.01840304 </v>
   <v>      -0.00315777      -0.01791172      -0.00730296 </v>
   <v>      -0.01051884      -0.00870630       0.02419203 </v>
   <v>       0.02421062      -0.03614254       0.01411193 </v>
   <v>      -0.00487787      -0.00378609      -0.01290461 </v>
   <v>       0.00198565       0.00025091      -0.01512820 </v>
   <v>       0.03359526      -0.05800602       0.01328792 </v>
   <v>      -0.00921524       0.03193441       0.03589296 </v>
   <v>       0.01281189      -0.01020816      -0.01814401 </v>
   <v>      -0.00420504       0.01465417      -0.04321673 </v>
   <v>      -0.01808455      -0.01801746       0.00141592 </v>
   <v>      -0.01656434       0.01283339      -0.00932749 </v>
   <v>      -0.00122612      -0.00257175      -0.00143936 </v>
   <v>       0.00104616       0.01563441      -0.00252103 </v>
   <v>       0.00396498       0.00161853      -0.00349903 </v>
   <v>       0.00424302      -0.01125848      -0.00407944 </v>
   <v>      -0.06241825       0.01627979       0.16227488 </v>
   <v>       0.00155955       0.00185304      -0.01938466 </v>
   <v>       0.01548183       0.03389475      -0.01161452 </v>
   <v>      -0.02346138       0.00855680      -0.01821852 </v>
   <v>       0.05334106      -0.16283277      -0.02450459 </v>
   <v>       0.21699287       0.05325353      -0.49336505 </v>
   <v>      -0.00852499      -0.01197299      -0.01299627 </v>
   <v>      -0.01106822      -0.00772267       0.00594862 </v>
   <v>       0.07056221      -0.03913007       0.01481201 </v>
   <v>       0.05436078       0.19213176      -0.17592274 </v>
   <v>       0.00096545       0.00219668       0.00694552 </v>
   <v>       0.00335711      -0.00302196       0.01597707 </v>
   <v>      -0.00652968      -0.02241655       0.02312356 </v>
   <v>      -0.00425945      -0.00648325      -0.02276868 </v>
   <v>      -0.00438258      -0.00191461      -0.01736985 </v>
   <v>      -0.02736263       0.04549444       0.01262529 </v>
   <v>       0.01626275      -0.01151612      -0.02870249 </v>
   <v>       0.00259019       0.02579816       0.00440224 </v>
   <v>      -0.01476761       0.01789228      -0.00940783 </v>
   <v>       0.00962829      -0.00053629       0.02318105 </v>
   <v>      -0.28665090       0.30584002      -0.55448760 </v>
   <v>      -0.03872577       0.12596228       0.01456880 </v>
   <v>      -0.02362154      -0.01271669      -0.04183117 </v>
   <v>      -0.02535570       0.01735294       0.04335358 </v>
   <v>       0.03137835      -0.01582530       0.00205111 </v>
   <v>       0.07307635       0.04700062       0.06744048 </v>
   <v>       0.02239191      -0.02075309      -0.01380254 </v>
   <v>       0.01799281       0.00425571       0.00292425 </v>
   <v>       0.00158633      -0.01088978      -0.00926368 </v>
   <v>       0.00678800       0.01502534       0.00578148 </v>
   <v>       0.33535849      -1.47822469       1.63320036 </v>
   <v>      -4.45138810       3.03387581       2.94127355 </v>
   <v>       0.36233731      -2.17356884      -1.41440570 </v>
   <v>      -1.94290352       3.03771838       0.36215819 </v>
   <v>       5.52561978      -2.96402518      -2.41824882 </v>
  </varray>
  <varray name="stress" >
   <v>       2.15312236       1.59430902       0.88480141 </v>
   <v>       1.59430897       2.39440826      -1.11522620 </v>
   <v>       0.88480139      -1.11522626      -0.91701727 </v>
  </varray>
  <energy>
   <i name="e_fr_energy">   -288.41776665 </i>
   <i name="e_wo_entrp">   -288.41776665 </i>
   <i name="e_0_energy">     -0.00000000 </i>
  </energy>
  <time name="totalsc">  395.92  399.69</time>
 </calculation>
 <calculation>
  <scstep>
   <time name="diag">    0   <time name="diag   <time name="diis">    5   <time name="diis">    5.35    5.37</time>
   <time name="orth   <time name="total">   1   <time name="total   <energy>
    <i name="alphaZ">     89.84601993 </i>
    <i name="ewald">  26318.74551450 </i>
    <i name="hartreedc"> -35418.70887091 </i>
    <i name="XCdc">    236.32607303 </i>
    <i name="pawpsdc">   3908.14364602 </i>
    <i name="pawaedc">  -3480.49436336 </i>
    <i name="eentropy">     -0.00000000 </i>
    <i name="bandstr">  -2292.92983571 </i>
    <i name="atom">  10349.21864788 </i>
    <i name="e_fr_energy">   -289.85316861 </i>
    <i name="e_wo_entrp">   -289.85316861 </i>
    <i name="e_0_energy">   -289.85316861 </i>
   </energy>
  </scstep>
  <scstep>
   <time name="diag">    0.94    0.94</time>
   <time name="diis">    5.39    5.41</time>
   <time name="orth">    0.05    0.05</time>
   <time name="total">   10.52   10.89</time>
   <energy>
    <i name="e_fr_energy">   -289.17621280 </i>
    <i name="e_wo_entrp">   -289.17621280 </i>
    <i name="e_0_energy">   -289.17621280 </i>
   </energy>
  </scstep>
  <scstep>
   <time name="diag">    0.94    0.94</time>
   <time name="diis">    5   <time name="diis">    6.37    6.40</time>
   <time name="orth   <time name="total">   1   <time name="total">   11.49   12.05</time>
   <energy>
    <i name="e_fr_energy">   -290.36233561 </i>
    <i name="e_wo_entrp">   -290.36233561 </i>
    <i name="e_0_energy">   -290.36233561 </i>
   </energ   <time name="diag">    0   <time name="diag   <time name="diis">    5   <time name="diis">    5.34    5.36</time>
   <time name="orth   <time name="total">   1   <time name="total">   10.47   10.53</time>
   <energy>
    <i name="e_fr_energy">   -290.35173502 </i>
    <i name="e_wo_entrp">   -290.35173502 </i>
    <i name="e_0_energy">   -290.35173502 </i>
   </energ   <time name="diag">    0   <time name="diag   <time name="diis">    5   <time name="diis">    5.35    5.37</time>
   <time name="orth   <time name="total">   1   <time name="total">   10.47   10.53</time>
   <energy>
    <i name="e_fr_energy">   -290.35712694 </i>
    <i name="e_wo_entrp">   -290.35712694 </i>
    <i name="e_0_energy">   -290.35712694 </i>
   </energ   <time name="diag">    0   <time name="diag   <time name="diis">    5   <time name="diis">    5.41    5.44</time>
   <time name="orth   <time name="total">   1   <time name="total">   10.53   10.60</time>
   <energy>
    <i name="e_fr_energy">   -290.35575591 </i>
    <i name="e_wo_entrp">   -290.35575591 </i>
    <i name="e_0_energy">   -290.35575591 </i>
   </energ   <time name="diag">    0   <time name="diag   <time name="diis">    5   <time name="diis">    5.31    5.32</time>
   <time name="orth   <time name="total">   1   <time name="total">   10.41   10.81</time>
   <energy>
    <i name="e_fr_energy">   -290.35544431 </i>
    <i name="e_wo_entrp">   -290.35544431 </i>
    <i name="e_0_energy">   -290.35544431 </i>
   </energ   <time name="diag">    0   <time name="diag   <time name="diis">    5   <time name="diis">    5.35    5.37</time>
   <time name="orth   <time name="total">   1   <time name="total">   10.46   10.52</time>
   <energy>
    <i name="e_fr_energy">   -290.35527329 </i>
    <i name="e_wo_entrp">   -290.35527329 </i>
    <i name="e_0_energy">   -290.35527329 </i>
   </energ   <time name="diag">    0   <time name="diag   <time name="diis">    5.39    5.41</time>
   <time name="orth">    0.05    0.05</time>
   <time name="total">   10.52   10.59</time>
   <energy>
    <i name="e_fr_energy">   -289.07951833 </i>
    <i name="e_wo_entrp">   -289.07951833 </i>
    <i name="e_0_energy">   -2  <structure>
   <crystal>
    <varray name="basis" >
     <v>      13.25440025       0.00000000       0.00000000 </v>
     <v>       0.00000000      13.12889957       0.00000000 </v>
     <v>       0.00000000       0.00000000      20.00000000 </v>
    </varray>
    <i name="volume">   3480.31379686 </i>
    <varray name="rec_basis" >
     <v>       0.07544664       0.00000000       0.00000000 </v>
     <v>       0.00000   <time name="diag">    0.93    0.94</time>
   <time name="diis">    5.77    5.80</time>
   <time name="orth">    0.05    0.05</time>
   <time name="total">   10.89   10.96</time>
   <energy>
    <i name="e_fr_energy">   -289.07956229 </i>
    <i name="e_wo_entrp">   -289.07956229 </i>
    <i name="e_0_energy">   -289.07956229 </i>
   </energy>
  </scstep>
  <scstep>
   <time name="diag">    0.94    0.94</time>
   <time name="diis">    4.79    4.80</time>
   <time name="orth">    0.05    0.05</time>
   <time name="total">    9.93   11.11</time>
   <energy>
    <i name="e_fr_energy">   -289.07956380 </i>
    <i name="e_wo_entrp">   -289.07956380 </i>
    <i name="e_0_energy">   -289.07956380 </i>
   </energy>
  </scstep>
  <scstep>
   <time name="diag">    0.93    0.94</time>
   <time name="diis">    4.73    4.75</time>
   <time name="orth">    0.05    0.05</time>
   <time name="total">    9.87    9.91</time>
   <energy>
    <i name="e_fr_energy">   -289.07956472 </i>
    <i name="e_wo_entrp">   -289.07956472 </i>
    <i name="e_0_energy">   -289.07956472 </i>
   </energy>
  </scstep>
  <scstep>
   <time name="diag">    0.93    0.94</time>
   <time name="diis">    3.89    3.90</time>
   <time name="orth">    0.05    0.05</time>
   <time name="total">    9.03    9.07</time>
   <energy>
    <i name="e_fr_energy">   -289.07956299 </i>
    <i name="e_wo_entrp">   -289.07956299 </i>
    <i name="e_0_energy">   -2  <structure>
   <crystal>
    <varray name="basis" >
     <v>      13.25440025       0.00000000       0.00000000 </v>
     <v>       0.00000000      13.12889957       0.00000000 </v>
     <v>       0.00000000       0.00000000      20.00000000 </v>
    </varray>
    <i name="volume">   3480.31379686 </i>
    <varray name="rec_basis" >
     <v>       0.07544664       0.00000000       0.00000000 </v>
     <v>       0.00000000       0.07616785       0.00000000 </v>
     <v>       0.00000000       0.00000000       0.05000000 </v>
    </varray>
   </crystal>
   <varray name="positions" >
    <v>       0.06635654       0.20962374       0.04354369 </v>
    <v>       0.19262226       0.32081634       0.04291458 </v>
    <v>       0.19010280       0.04004254       0.14698472 </v>
    <v>       0.06540865       0.15343420       0.14923463 </v>
    <v>       0.31007516       0.19987437       0.03836354 </v>
    <v>       0.44031055       0.30550741       0.02550402 </v>
    <v>       0.43998979       0.03995739       0.14698935 </v>
    <v>       0.31532408       0.15289394       0  <structure>
   <crystal>
    <varray name="basis" >
     <v>      13.25440025       0.00000000       0.00000000 </v>
     <v>       0.00000000      13.12889957       0.00000000 </v>
     <v>       0.00000000       0.00000000      20.00000000 </v>
    </varray>
    <i name="volume">   3480.31379686 </i>
    <varray name="rec_basis" >
     <v>       0.07544664       0.00000000       0.00000000 </v>
     <v>       0.00000000       0.07616785       0.00000000 </v>
     <v>       0.00000000       0.00000000       0.05000000 </v>
    </varray>
   </crystal>
   <varray name="positions" >
    <v>       0.06746908       0.20881004       0.04400223 </v>
    <v>       0.19354384       0.32038390       0.04311826 </v>
    <v>       0.19083907       0.03926358       0.14774421 </v>
    <v>       0.06624961       0.15289614       0.14979077 </v>
    <v>       0.31087228       0.19940125       0.03901760 </v>
    <v>       0.44107112       0.30469454       0.02607592 </v>
    <v>       0.44048100       0.03921000       0.14763933 </v>
    <v>       0.31592466       0.15226962       0.14686077 </v>
    <v>       0.57052426       0.19807898       0.03805060 </v>
    <v>       0.68946660       0.31775644       0.04046178 </v>
    <v>       0.69003896       0.03949962       0.14798011 </v>
    <v>       0.56495130       0.15250137       0.14633162 </v>
    <v>       0.81551183       0.20660536       0.04305917 </v>
    <v>       0.94094030       0.31930055       0.04095783 </v>
    <v>       0.94058259       0.04006594       0.14933498 </v>
    <v>       0.81500352       0.15288578       0.14925208 </v>
    <v>       0.06571711       0.53879988       0.03253709 </v>
    <v>       0.19010762       0.65335172       0.02977560 </v>
    <v>       0.19472084       0.38515357       0.14829202 </v>
    <v>       0.06619735       0.49373627       0.14066037 </v>
    <v>       0.31692431       0.54213223       0.02660149 </v>
    <v>       0.44012548       0.65481296       0.02546795 </v>
    <v>       0.44049353       0.36280415       0.13051470 </v>
    <v>       0.32998465       0.48734602       0.13394635 </v>
    <v>       0.56385909       0.54184711       0.02694031 </v>
    <v>       0.69062211       0.65292574       0.03174608 </v>
    <v>       0.68832132       0.38066869       0.14590542 </v>
    <v>       0.55504302       0.48465022       0.13329716 </v>
    <v>       0.81484218       0.53833943       0.03334771 </v>
    <v>       0.93997904       0.65176763       0.03334484 </v>
    <v>       0.94113445       0.38015835       0.14516735 </v>
[...]
       <r>   -24.3901     0.0000     1.0000 </r>
       <r>   -24.2905     0.0000     1.0000 </r>
       <r>   -24.1909     0.0000     1.0000 </r>
       <r>   -24.0913     0.0000     1.0000 </r>
       <r>   -23.9917     0.0000     1.0000 </r>
       <r>   -23.8920     0.0000     1.0000 </r>
       <r>   -23.7924     0.0000     1.0000 </r>
       <r>   -23.6928     0.0000     1.0000 </r>
       <r>   -23.5932     0.0000     1.0000 </r>
       <r>   -23.4936     0.0000     1.0000 </r>
       <r>   -23.3940     0.0000     1.0000 </r>
       <r>   -23.2944     0.0000     1.0000 </r>
       <r>   -23.1948     0.0000     1.0000 </r>
       <r>   -23.0951     0.1706     1.0170 </r>
       <r>   -22.9955     7.4307     1.7572 </r>
       <r>   -22.8959     2.4354     1.9998 </r>
       <r>   -22.7963     0.0022     2.0000 </r>
       <r>   -22.6967     0.0000     2.0000 </r>
       <r>   -22.5971     0.0000     2.0000 </r>
       <r>   -22.4975     0.0000     2.0000 </r>
       <r>   -22.3979     0.0000     2.0000 </r>
       <r>   -22.2982     0.0000     2.0000 </r>
       <r>   -22.1986     0.0000     2.0000 </r>
       <r>   -22.0990     0.0000     2.0000 </r>
       <r>   -21.9994     0.0000     2.0000 </r>
       <r>   -21.8998     0.0000     2.0000 </r>
       <r>   -21.8002     0.0000     2.0000 </r>
       <r>   -21.7006     0.0000     2.0000 </r>
       <r>   -21.6010     0.0000     2.0000 </r>
       <r>   -21.5013     0.0000     2.0000 </r>
       <r>   -21.4017     0.0000     2.0000 </r>
       <r>   -21.3021     0.0000     2.0000 </r>
       <r>   -21.2025     0.0000     2.0000 </r>
       <r>   -21.1029     0.0000     2.0000 </r>
       <r>   -21.0033     0.0000     2.0000 </r>
       <r>   -20.9037     0.0000     2.0000 </r>
       <r>   -20.8041     0.0000     2.0000 </r>
       <r>   -20.7044     0.0000     2.0000 </r>
       <r>   -20.6048     0.0000     2.0000 </r>
       <r>   -20.5052     0.0000     2.0000 </r>
       <r>   -20.4056     0.0000     2.0000 </r>
       <r>   -20.3060     0.0000     2.0000 </r>
       <r>   -20.2064     0.0000     2.0000 </r>
       <r>   -20.1068     0.0000     2.0000 </r>
       <r>   -20.0072     0.0000     2.0000 </r>
       <r>   -19.9075     0.0000     2.0000 </r>
       <r>   -19.8079     0.0000     2.0000 </r>
       <r>   -19.7083     0.0000     2.0000 </r>
       <r>   -19.6087     0.0000     2.0000 </r>
       <r>   -19.5091     0.0000     2.0000 </r>
       <r>   -19.4095     0.0000     2.0000 </r>
       <r>   -19.3099     0.0000     2.0000 </r>
       <r>   -19.2103     0.0000     2.0000 </r>
       <r>   -19.1106     0.0000     2.0000 </r>
       <r>   -19.0110     0.0000     2.0000 </r>
       <r>   -18.9114     0.0000     2.0000 </r>
       <r>   -18.8118     0.0000     2.0000 </r>
       <r>   -18.7122     0.0000     2.0000 </r>
       <r>   -18.6126     0.0486     2.0048 </r>
       <r>   -18.5130     5.8850     2.5911 </r>
       <r>   -18.4134     4.0937     2.9988 </r>
       <r>   -18.3137     0.0116     3.0000 </r>
       <r>   -18.2141     0.0000     3.0000 </r>
       <r>   -18.1145     0.0000     3.0000 </r>
       <r>   -18.0149     0.0000     3.0000 </r>
       <r>   -17.9153     0.0000     3.0000 </r>
       <r>   -17.8157     0.0000     3.0000 </r>
       <r>   -17.7161     0.0000     3.0000 </r>
       <r>   -17.6164     0.0000     3.0000 </r>
       <r>   -17.5168     0.0000     3.0000 </r>
       <r>   -17.4172     0.3564     3.0355 </r>
       <r>   -17.3176     8.1188     3.8442 </r>
       <r>   -17.2180     1.5630     3.9999 </r>
       <r>   -17.1184     0.0006     4.0000 </r>
       <r>   -17.0188     0.0000     4.0000 </r>
       <r>   -16.9192     0.0001     4.0000 </r>
       <r>   -16.8195     0.8863     4.0883 </r>
       <r>   -16.7199    14.9723     5.5797 </r>
       <r>   -16.6203    13.1850     6.8931 </r>
       <r>   -16.5207    10.8461     7.9735 </r>
       <r>   -16.4211     0.2657     8.0000 </r>
       <r>   -16.3215     0.0000     8.0000 </r>
       <r>   -16.2219     0.0002     8.0000 </r>
       <r>   -16.1223     1.1569     8.1153 </r>
       <r>   -16.0226    22.0028    10.3070 </r>
       <r>   -15.9230    16.3698    11.9377 </r>
       <r>   -15.8234     0.6257    12.0000 </r>
       <r>   -15.7238     0.0001    12.0000 </r>
       <r>   -15.6242     0.0000    12.0000 </r>
       <r>   -15.5246     0.0000    12.0000 </r>
       <r>   -15.4250     0.3834    12.0382 </r>
       <r>   -15.3254    14.6223    13.4948 </r>
       <r>   -15.2257     5.0655    13.9994 </r>
       <r>   -15.1261     0.0065    14.0000 </r>
       <r>   -15.0265     0.0000    14.0000 </r>
       <r>   -14.9269     0.0000    14.0000 </r>
       <r>   -14.8273     0.1186    14.0118 </r>
       <r>   -14.7277     8.6013    14.8686 </r>
       <r>   -14.6281    31.4590    18.0023 </r>
       <r>   -14.5285    19.7912    19.9738 </r>
       <r>   -14.4288    10.2413    20.9939 </r>
       <r>   -14.3292     0.1095    21.0049 </r>
       <r>   -14.2296    11.8918    22.1894 </r>
       <r>   -14.1300    27.1957    24.8985 </r>
       <r>   -14.0304     1.2804    25.0260 </r>
       <r>   -13.9308    10.3742    26.0594 </r>
       <r>   -13.8312     9.2818    26.9840 </r>
       <r>   -13.7316     0.1606    27.0000 </r>
       <r>   -13.6319     0.0000    27.0000 </r>
       <r>   -13.5323     0.0000    27.0000 </r>
       <r>   -13.4327     0.0000    27.0000 </r>
       <r>   -13.3331     0.0000    27.0000 </r>
       <r>   -13.2335     0.0000    27.0000 </r>
       <r>   -13.1339     0.0000    27.0000 </r>
       <r>   -13.0343     0.0000    27.0000 </r>
       <r>   -12.9347     0.0000    27.0000 </r>
       <r>   -12.8350     0.0000    27.0000 </r>
       <r>   -12.7354     0.0000    27.0000 </r>
       <r>   -12.6358     0.0000    27.0000 </r>
       <r>   -12.5362     0.0000    27.0000 </r>
       <r>   -12.4366     0.0000    27.0000 </r>
       <r>   -12.3370     0.0000    27.0000 </r>
       <r>   -12.2374     0.0000    27.0000 </r>
       <r>   -12.1377     0.0004    27.0000 </r>
       <r>   -12.0381     1.3400    27.1335 </r>
       <r>   -11.9385    18.0981    28.9363 </r>
       <r>   -11.8389    34.5882    32.3817 </r>
       <r>   -11.7393    10.4871    33.4264 </r>
       <r>   -11.6397    14.9347    34.9141 </r>
       <r>   -11.5401     8.4945    35.7602 </r>
       <r>   -11.4405     7.1639    36.4738 </r>
       <r>   -11.3408    29.9306    39.4553 </r>
       <r>   -11.2412    14.4342    40.8931 </r>
       <r>   -11.1416     3.3353    41.2254 </r>
       <r>   -11.0420     7.6010    41.9825 </r>
       <r>   -10.9424     4.9980    42.4804 </r>
       <r>   -10.8428     5.1878    42.9972 </r>
       <r>   -10.7432     0.0283    43.0000 </r>
       <r>   -10.6436     0.0000    43.0000 </r>
       <r>   -10.5439     0.0000    43.0000 </r>
       <r>   -10.4443     0.0000    43.0000 </r>
       <r>   -10.3447     0.0000    43.0000 </r>
       <r>   -10.2451     0.0000    43.0000 </r>
       <r>   -10.1455     0.0000    43.0000 </r>
       <r>   -10.0459     0.0059    43.0006 </r>
       <r>    -9.9463     3.3649    43.3358 </r>
       <r>    -9.8467    11.1554    44.4470 </r>
       <r>    -9.7470    16.1514    46.0559 </r>
       <r>    -9.6474    26.5759    48.7032 </r>
       <r>    -9.5478     2.9785    48.9999 </r>
       <r>    -9.4482     0.0013    49.0000 </r>
       <r>    -9.3486     0.0000    49.0000 </r>
       <r>    -9.2490     0.0000    49.0000 </r>
       <r>    -9.1494     0.0031    49.0003 </r>
       <r>    -9.0498     2.7379    49.2730 </r>
       <r>    -8.9501     7.1631    49.9866 </r>
       <r>    -8.8505     0.1347    50.0000 </r>
       <r>    -8.7509     0.0000    50.0000 </r>
       <r>    -8.6513     0.0000    50.0000 </r>
       <r>    -8.5517     0.0000    50.0000 </r>
       <r>    -8.4521     0.2633    50.0262 </r>
       <r>    -8.3525    12.8638    51.3076 </r>
       <r>    -8.2529    11.6291    52.4660 </r>
       <r>    -8.1532    10.4482    53.5068 </r>
       <r>    -8.0536    17.6245    55.2624 </r>
       <r>    -7.9540    27.4310    57.9949 </r>
       <r>    -7.8544     9.8956    58.9806 </r>
       <r>    -7.7548     0.1946    59.0000 </r>
       <r>    -7.6552     0.4723    59.0470 </r>
       <r>    -7.5556    15.4890    60.5900 </r>
       <r>    -7.4560    23.6394    62.9447 </r>
       <r>    -7.3563    30.5249    65.9854 </r>
       <r>    -7.2567    22.2229    68.1991 </r>
       <r>    -7.1571    25.3484    70.7241 </r>
       <r>    -7.0575     5.4480    71.2668 </r>
       <r>    -6.9579     8.4178    72.1053 </r>
       <r>    -6.8583    18.3965    73.9379 </r>
       <r>    -6.7587    11.2668    75.0602 </r>
       <r>    -6.6591     8.7807    75.9348 </r>
       <r>    -6.5594     3.4850    76.2820 </r>
       <r>    -6.4598    19.3557    78.2101 </r>
       <r>    -6.3602    15.4460    79.7487 </r>
       <r>    -6.2606     8.2604    80.5715 </r>
       <r>    -6.1610    12.4226    81.8090 </r>
       <r>    -6.0614    11.8892    82.9933 </r>
       <r>    -5.9618    10.1620    84.0056 </r>
       <r>    -5.8621     9.0546    84.9075 </r>
       <r>    -5.7625    16.9224    86.5932 </r>
       <r>    -5.6629    25.9968    89.1828 </r>
       <r>    -5.5633    16.9204    90.8683 </r>
       <r>    -5.4637     1.3219    91.0000 </r>
       <r>    -5.3641     0.8330    91.0830 </r>
       <r>    -5.2645    15.3284    92.6099 </r>
       <r>    -5.1649     5.7744    93.1851 </r>
       <r>    -5.0652    11.4041    94.3211 </r>
       <r>    -4.9656    18.5249    96.1664 </r>
       <r>    -4.8660     8.8871    97.0516 </r>
       <r>    -4.7664    11.4082    98.1880 </r>
       <r>    -4.6668    17.3068    99.9120 </r>
       <r>    -4.5672    15.5151   101.4575 </r>
       <r>    -4.4676    21.7500   103.6241 </r>
       <r>    -4.3680    18.9843   105.5152 </r>
       <r>    -4.2683    16.6712   107.1758 </r>
       <r>    -4.1687    19.5089   109.1192 </r>
       <r>    -4.0691    21.8281   111.2935 </r>
       <r>    -3.9695    15.2077   112.8084 </r>
       <r>    -3.8699    15.3462   114.3371 </r>
       <r>    -3.7703    33.1141   117.6357 </r>
       <r>    -3.6707    24.4250   120.0687 </r>
       <r>    -3.5711    18.6747   121.9289 </r>
       <r>    -3.4714    29.8536   124.9027 </r>
       <r>    -3.3718    15.1623   126.4131 </r>
       <r>    -3.2722     5.8588   126.9967 </r>
       <r>    -3.1726     0.0627   127.0030 </r>
       <r>    -3.0730     5.2506   127.5260 </r>
       <r>    -2.9734     4.7685   128.0010 </r>
       <r>    -2.8738     5.2703   128.5260 </r>
       <r>    -2.7742     6.1713   129.1407 </r>
       <r>    -2.6745     8.3033   129.9678 </r>
       <r>    -2.5749     6.9289   130.6580 </r>
       <r>    -2.4753     3.9739   131.0539 </r>
       <r>    -2.3757    14.1828   132.4667 </r>
       <r>    -2.2761    15.0535   133.9662 </r>
       <r>    -2.1765     7.1651   134.6799 </r>
       <r>    -2.0769     3.2081   134.9995 </r>
       <r>    -1.9773     0.0051   135.0000 </r>
       <r>    -1.8776     0.0000   135.0000 </r>
       <r>    -1.7780     0.0000   135.0000 </r>
       <r>    -1.6784     0.0000   135.0000 </r>
       <r>    -1.5788     0.0000   135.0000 </r>
       <r>    -1.4792     0.0000   135.0000 </r>
       <r>    -1.3796     0.0544   135.0054 </r>
       <r>    -1.2800     6.0364   135.6067 </r>
       <r>    -1.1804     6.7519   136.2793 </r>
       <r>    -1.0807     7.1077   136.9873 </r>
       <r>    -0.9811     0.1434   137.0016 </r>
       <r>    -0.8815     4.9675   137.4964 </r>
       <r>    -0.7819    20.6832   139.5567 </r>
       <r>    -0.6823    25.3417   142.0811 </r>
       <r>    -0.5827    10.5845   143.1354 </r>
       <r>    -0.4831     8.3056   143.9628 </r>
       <r>    -0.3835     9.6179   144.9208 </r>
       <r>    -0.2838    27.5817   147.6683 </r>
       <r>    -0.1842    22.7395   149.9335 </r>
       <r>    -0.0846    11.2042   151.0496 </r>
       <r>     0.0150    21.8553   153.2266 </r>
       <r>     0.1146     7.7593   153.9996 </r>
       <r>     0.2142     7.8617   154.7827 </r>
       <r>     0.3138    22.6795   157.0418 </r>
       <r>     0.4135    21.3782   159.1714 </r>
       <r>     0.5131    31.5552   162.3147 </r>
       <r>     0.6127    16.9602   164.0041 </r>
       <r>     0.7123    13.3009   165.3291 </r>
       <r>     0.8119     9.4822   166.2736 </r>
       <r>     0.9115    14.5604   167.7240 </r>
       <r>     1.0111    18.3415   169.5511 </r>
       <r>     1.1107    40.2009   173.5556 </r>
       <r>     1.2104    24.3058   175.9768 </r>
       <r>     1.3100    20.4730   178.0161 </r>
       <r>     1.4096    18.6900   179.8779 </r>
       <r>     1.5092    13.6713   181.2397 </r>
       <r>     1.6088    15.8441   182.8180 </r>
       <r>     1.7084     1.8997   183.0072 </r>
       <r>     1.8080     6.4212   183.6469 </r>
       <r>     1.9076     3.7503   184.0205 </r>
       <r>     2.0073     8.0934   184.8267 </r>
       <r>     2.1069    11.9608   186.0181 </r>
       <r>     2.2065    14.5037   187.4629 </r>
       <r>     2.3061    14.9872   188.9558 </r>
       <r>     2.4057     0.4440   189.0000 </r>
       <r>     2.5053     0.0000   189.0000 </r>
       <r>     2.6049     0.0000   189.0000 </r>
       <r>     2.7045     0.0000   189.0000 </r>
       <r>     2.8042     0.0000   189.0000 </r>
       <r>     2.9038     0.0000   189.0000 </r>
       <r>     3.0034     0.0000   189.0000 </r>
       <r>     3.1030     0.0000   189.0000 </r>
       <r>     3.2026     0.0000   189.0000 </r>
       <r>     3.3022     0.0000   189.0000 </r>
       <r>     3.4018     0.0000   189.0000 </r>
       <r>     3.5014     0.0000   189.0000 </r>
       <r>     3.6011     0.0000   189.0000 </r>
      </set>
     </set>
    </array>
   </total>
  </dos>
 </calculation>
 <structure name="finalpos" >
  <crystal>
   <varray name="basis" >
    <v>      13.25440025       0.00000000       0.00000000 </v>
    <v>       0.00000000      13.12889957       0.00000000 </v>
    <v>       0.00000000       0.00000000      20.00000000 </v>
   </varray>
   <i name="volume">   3480.31379686 </i>
   <varray name="rec_basis" >
    <v>       0.07544664       0.00000000       0.00000000 </v>
    <v>       0.00000000       0.07616785       0.00000000 </v>
    <v>       0.00000000       0.00000000       0.05000000 </v>
   </varray>
  </crystal>
  <varray name="positions" >
   <v>       0.06835232       0.20851678       0.04345861 </v>
   <v>       0.19448871       0.31996786       0.04269074 </v>
   <v>       0.19125673       0.03767316       0.14652690 </v>
   <v>       0.06701892       0.15155989       0.14887159 </v>
   <v>       0.31082597       0.19815690       0.03799113 </v>
   <v>       0.44113547       0.30311161       0.02460970 </v>
   <v>       0.44083905       0.03761129       0.14626813 </v>
   <v>       0.31628724       0.15061384       0.14575202 </v>
   <v>       0.57083637       0.19679686       0.03725985 </v>
   <v>       0.68998385       0.31686175       0.04002262 </v>
   <v>       0.69065523       0.03786559       0.14654331 </v>
   <v>       0.56538888       0.15067279       0.14526113 </v>
   <v>       0.81636510       0.20597571       0.04213408 </v>
   <v>       0.94144757       0.31896575       0.04100338 </v>
   <v>       0.94123443       0.03894583       0.14785268 </v>
   <v>       0.81550137       0.15143194       0.14807053 </v>
   <v>       0.06606991       0.53791291       0.03314623 </v>
   <v>       0.19023970       0.65268624       0.03081965 </v>
   <v>       0.19488050       0.38460496       0.14846577 </v>
   <v>       0.06618399       0.49238128       0.14112072 </v>
   <v>       0.31690573       0.54184152       0.02573643 </v>
   <v>       0.44115477       0.65338348       0.02327235 </v>
   <v>       0.44028666       0.36148677       0.12947986 </v>
   <v>       0.33004531       0.48829107       0.13339270 </v>
   <v>       0.56464447       0.53999605       0.02658577 </v>
   <v>       0.69100755       0.65133135       0.03167073 </v>
   <v>       0.68779637       0.37855343       0.14519454 </v>
   <v>       0.55545612       0.48313878       0.13294115 </v>
   <v>       0.81536967       0.53708555       0.03365963 </v>
   <v>       0.94027998       0.65059592       0.03374417 </v>
   <v>       0.94100969       0.37853330       0.14554980 </v>
   <v>       0.81448472       0.49023313       0.14133247 </v>
   <v>       0.06494519       0.87208726       0.03905242 </v>
   <v>       0.18949822       0.98497358       0.03991701 </v>
   <v>       0.19169031       0.69783602       0.13886944 </v>
   <v>       0.06643679       0.81096102       0.14384309 </v>
   <v>       0.31525710       0.87303815       0.03834941 </v>
   <v>       0.44063775       0.98514827       0.03987883 </v>
   <v>       0.43798423       0.69940056       0.13358760 </v>
   <v>       0.31421421       0.81307838       0.14392897 </v>
   <v>       0.56523645       0.87237182       0.03949389 </v>
   <v>       0.69077705       0.98422064       0.04033473 </v>
   <v>       0.68979764       0.69827970       0.13928179 </v>
   <v>       0.56472343       0.81039706       0.14483932 </v>
   <v>       0.81644551       0.87227644       0.03926725 </v>
   <v>       0.94103758       0.98573031       0.04137809 </v>
   <v>       0.94035995       0.69959313       0.14091016 </v>
   <v>       0.81471714       0.81157142       0.14384382 </v>
   <v>       0.43511234       0.56562287       0.20436332 </v>
   <v>       0.35092648       0.62273000       0.28259813 </v>
   <v>       0.41300812       0.57690565       0.33009942 </v>
   <v>       0.45865371       0.49173952       0.29008119 </v>
   <v>       0.28746988       0.68406002       0.29948191 </v>
  </varray>
  <varray name="selective"  type="logical" >
   <v type="logical" >  T  T  T </v>
   <v type="logical" >  T  T  T </v>
   <v type="logical" >  T  T  T </v>
   <v type="logical" >  T  T  T </v>
   <v type="logical" >  T  T  T </v>
   <v type="logical" >  T  T  T </v>
   <v type="logical" >  T  T  T </v>
   <v type="logical" >  T  T  T </v>
   <v type="logical" >  T  T  T </v>
   <v type="logical" >  T  T  T </v>
   <v type="logical" >  T  T  T </v>
   <v type="logical" >  T  T  T </v>
   <v type="logical" >  T  T  T </v>
   <v type="logical" >  T  T  T </v>
   <v type="logical" >  T  T  T </v>
   <v type="logical" >  T  T  T </v>
   <v type="logical" >  T  T  T </v>
   <v type="logical" >  T  T  T </v>
   <v type="logical" >  T  T  T </v>
   <v type="logical" >  T  T  T </v>
   <v type="logical" >  T  T  T </v>
   <v type="logical" >  T  T  T </v>
   <v type="logical" >  T  T  T </v>
   <v type="logical" >  T  T  T </v>
   <v type="logical" >  T  T  T </v>
   <v type="logical" >  T  T  T </v>
   <v type="logical" >  T  T  T </v>
   <v type="logical" >  T  T  T </v>
   <v type="logical" >  T  T  T </v>
   <v type="logical" >  T  T  T </v>
   <v type="logical" >  T  T  T </v>
   <v type="logical" >  T  T  T </v>
   <v type="logical" >  T  T  T </v>
   <v type="logical" >  T  T  T </v>
   <v type="logical" >  T  T  T </v>
   <v type="logical" >  T  T  T </v>
   <v type="logical" >  T  T  T </v>
   <v type="logical" >  T  T  T </v>
   <v type="logical" >  T  T  T </v>
   <v type="logical" >  T  T  T </v>
   <v type="logical" >  T  T  T </v>
   <v type="logical" >  T  T  T </v>
   <v type="logical" >  T  T  T </v>
   <v type="logical" >  T  T  T </v>
   <v type="logical" >  T  T  T </v>
   <v type="logical" >  T  T  T </v>
   <v type="logical" >  T  T  T </v>
   <v type="logical" >  T  T  T </v>
   <v type="logical" >  T  T  T </v>
   <v type="logical" >  T  T  T </v>
   <v type="logical" >  T  T  T </v>
   <v type="logical" >  T  T  T </v>
   <v type="logical" >  T  T  T </v>
  </varray>
  <nose>
   <v>      -3.00000000       0.00000000       0.00010000       0.00010000 </v>
  </nose>
 </structure>
</modeling>
