  53  53   0   0
  0.6566630E+02  0.1325440E-08  0.1312890E-08  0.2000000E-08  0.2000000E-15
  1.000000000000000E-004
  CAR 
 TS_BlakPhos                             
      3.61893120    -26.35779775  301     -1.96423457      1.00000000
    -26.358  0.0000E+00  0.0000E+00  0.0000E+00  0.0000E+00
    -26.258  0.0000E+00  0.0000E+00  0.0000E+00  0.0000E+00
    -26.158  0.0000E+00  0.0000E+00  0.0000E+00  0.0000E+00
    -26.058  0.0000E+00  0.0000E+00  0.0000E+00  0.0000E+00
    -25.958  0.0000E+00  0.0000E+00  0.0000E+00  0.0000E+00
    -25.858  0.0000E+00  0.0000E+00  0.0000E+00  0.0000E+00
    -25.758  0.0000E+00  0.0000E+00  0.0000E+00  0.0000E+00
    -25.658  0.0000E+00  0.0000E+00  0.0000E+00  0.0000E+00
    -25.558  0.0000E+00  0.0000E+00  0.0000E+00  0.0000E+00
    -25.458  0.0000E+00  0.0000E+00  0.0000E+00  0.0000E+00
    -25.359  0.0000E+00  0.0000E+00  0.0000E+00  0.0000E+00
    -25.259  0.4639E-15  0.4639E-15  0.4635E-16  0.4635E-16
    -25.159  0.1877E-07  0.1877E-07  0.1875E-08  0.1875E-08
    -25.059  0.3607E-03  0.3607E-03  0.3605E-04  0.3605E-04
    -24.959  0.8125E-02  0.8125E-02  0.8480E-03  0.8480E-03
    -24.859  0.1521E-02  0.1521E-02  0.9999E-03  0.9999E-03
    -24.759  0.5816E-06  0.5816E-06  0.1000E-02  0.1000E-02
    -24.659  0.1194E-12  0.1194E-12  0.1000E-02  0.1000E-02
    -24.559  0.0000E+00  0.0000E+00  0.1000E-02  0.1000E-02
    -24.459  0.0000E+00  0.0000E+00  0.1000E-02  0.1000E-02
    -24.359  0.0000E+00  0.0000E+00  0.1000E-02  0.1000E-02
    -24.259  0.0000E+00  0.0000E+00  0.1000E-02  0.1000E-02
    -24.160  0.0000E+00  0.0000E+00  0.1000E-02  0.1000E-02
    -24.060  0.0000E+00  0.0000E+00  0.1000E-02  0.1000E-02
    -23.960  0.0000E+00  0.0000E+00  0.1000E-02  0.1000E-02
    -23.860  0.0000E+00  0.0000E+00  0.1000E-02  0.1000E-02
    -23.760  0.0000E+00  0.0000E+00  0.1000E-02  0.1000E-02
    -23.660  0.0000E+00  0.0000E+00  0.1000E-02  0.1000E-02
    -23.560  0.0000E+00  0.0000E+00  0.1000E-02  0.1000E-02
    -23.460  0.0000E+00  0.0000E+00  0.1000E-02  0.1000E-02
    -23.360  0.0000E+00  0.0000E+00  0.1000E-02  0.1000E-02
    -23.260  0.0000E+00  0.0000E+00  0.1000E-02  0.1000E-02
    -23.160  0.1385E-11  0.1385E-11  0.1000E-02  0.1000E-02
    -23.060  0.2463E-05  0.2463E-05  0.1000E-02  0.1000E-02
    -22.960  0.2550E-02  0.2550E-02  0.1255E-02  0.1255E-02
    -22.861  0.7304E-02  0.7304E-02  0.1985E-02  0.1985E-02
    -22.761  0.1511E-03  0.1511E-03  0.2000E-02  0.2000E-02
    -22.661  0.2964E-08  0.2964E-08  0.2000E-02  0.2000E-02
    -22.561  0.2667E-16  0.2667E-16  0.2000E-02  0.2000E-02
    -22.461  0.0000E+00  0.0000E+00  0.2000E-02  0.2000E-02
    -22.361  0.0000E+00  0.0000E+00  0.2000E-02  0.2000E-02
    -22.261  0.0000E+00  0.0000E+00  0.2000E-02  0.2000E-02
    -22.161  0.0000E+00  0.0000E+00  0.2000E-02  0.2000E-02
    -22.061  0.0000E+00  0.0000E+00  0.2000E-02  0.2000E-02
    -21.961  0.0000E+00  0.0000E+00  0.2000E-02  0.2000E-02
    -21.861  0.0000E+00  0.0000E+00  0.2000E-02  0.2000E-02
    -21.761  0.0000E+00  0.0000E+00  0.2000E-02  0.2000E-02
    -21.661  0.0000E+00  0.0000E+00  0.2000E-02  0.2000E-02
    -21.562  0.0000E+00  0.0000E+00  0.2000E-02  0.2000E-02
    -21.462  0.0000E+00  0.0000E+00  0.2000E-02  0.2000E-02
    -21.362  0.0000E+00  0.0000E+00  0.2000E-02  0.2000E-02
    -21.262  0.0000E+00  0.0000E+00  0.2000E-02  0.2000E-02
    -21.162  0.0000E+00  0.0000E+00  0.2000E-02  0.2000E-02
    -21.062  0.0000E+00  0.0000E+00  0.2000E-02  0.2000E-02
    -20.962  0.0000E+00  0.0000E+00  0.2000E-02  0.2000E-02
    -20.862  0.0000E+00  0.0000E+00  0.2000E-02  0.2000E-02
    -20.762  0.0000E+00  0.0000E+00  0.2000E-02  0.2000E-02
    -20.662  0.0000E+00  0.0000E+00  0.2000E-02  0.2000E-02
    -20.562  0.0000E+00  0.0000E+00  0.2000E-02  0.2000E-02
    -20.462  0.0000E+00  0.0000E+00  0.2000E-02  0.2000E-02
    -20.362  0.0000E+00  0.0000E+00  0.2000E-02  0.2000E-02
    -20.263  0.0000E+00  0.0000E+00  0.2000E-02  0.2000E-02
    -20.163  0.0000E+00  0.0000E+00  0.2000E-02  0.2000E-02
    -20.063  0.0000E+00  0.0000E+00  0.2000E-02  0.2000E-02
    -19.963  0.0000E+00  0.0000E+00  0.2000E-02  0.2000E-02
    -19.863  0.0000E+00  0.0000E+00  0.2000E-02  0.2000E-02
    -19.763  0.0000E+00  0.0000E+00  0.2000E-02  0.2000E-02
    -19.663  0.0000E+00  0.0000E+00  0.2000E-02  0.2000E-02
    -19.563  0.0000E+00  0.0000E+00  0.2000E-02  0.2000E-02
    -19.463  0.0000E+00  0.0000E+00  0.2000E-02  0.2000E-02
    -19.363  0.0000E+00  0.0000E+00  0.2000E-02  0.2000E-02
    -19.263  0.0000E+00  0.0000E+00  0.2000E-02  0.2000E-02
    -19.163  0.0000E+00  0.0000E+00  0.2000E-02  0.2000E-02
    -19.063  0.0000E+00  0.0000E+00  0.2000E-02  0.2000E-02
    -18.964  0.5818E-10  0.5818E-10  0.2000E-02  0.2000E-02
    -18.864  0.1997E-04  0.1997E-04  0.2002E-02  0.2002E-02
    -18.764  0.4774E-02  0.4774E-02  0.2479E-02  0.2479E-02
    -18.664  0.5186E-02  0.5186E-02  0.2997E-02  0.2997E-02
    -18.564  0.2774E-04  0.2774E-04  0.3000E-02  0.3000E-02
    -18.464  0.1074E-09  0.1074E-09  0.3000E-02  0.3000E-02
    -18.364  0.0000E+00  0.0000E+00  0.3000E-02  0.3000E-02
    -18.264  0.0000E+00  0.0000E+00  0.3000E-02  0.3000E-02
    -18.164  0.0000E+00  0.0000E+00  0.3000E-02  0.3000E-02
    -18.064  0.0000E+00  0.0000E+00  0.3000E-02  0.3000E-02
    -17.964  0.0000E+00  0.0000E+00  0.3000E-02  0.3000E-02
    -17.864  0.0000E+00  0.0000E+00  0.3000E-02  0.3000E-02
    -17.764  0.0000E+00  0.0000E+00  0.3000E-02  0.3000E-02
    -17.665  0.0000E+00  0.0000E+00  0.3000E-02  0.3000E-02
    -17.565  0.3577E-11  0.3577E-11  0.3000E-02  0.3000E-02
    -17.465  0.4245E-05  0.4245E-05  0.3000E-02  0.3000E-02
    -17.365  0.3047E-02  0.3047E-02  0.3305E-02  0.3305E-02
    -17.265  0.6853E-02  0.6853E-02  0.3990E-02  0.3990E-02
    -17.165  0.1029E-03  0.1029E-03  0.4000E-02  0.4000E-02
    -17.065  0.1359E-08  0.1359E-08  0.4000E-02  0.4000E-02
    -16.965  0.6105E-10  0.6105E-10  0.4000E-02  0.4000E-02
    -16.865  0.2087E-04  0.2087E-04  0.4002E-02  0.4002E-02
    -16.765  0.6107E-02  0.6107E-02  0.4612E-02  0.4612E-02
    -16.665  0.1538E-01  0.1538E-01  0.6149E-02  0.6149E-02
    -16.565  0.1514E-01  0.1514E-01  0.7662E-02  0.7662E-02
    -16.465  0.3380E-02  0.3380E-02  0.8000E-02  0.8000E-02
    -16.366  0.4558E-05  0.4558E-05  0.8000E-02  0.8000E-02
    -16.266  0.1605E-09  0.1605E-09  0.8000E-02  0.8000E-02
    -16.166  0.3557E-04  0.3557E-04  0.8004E-02  0.8004E-02
    -16.066  0.8727E-02  0.8727E-02  0.8876E-02  0.8876E-02
    -15.966  0.2573E-01  0.2573E-01  0.1145E-01  0.1145E-01
    -15.866  0.5521E-02  0.5521E-02  0.1200E-01  0.1200E-01
    -15.766  0.1970E-04  0.1970E-04  0.1200E-01  0.1200E-01
    -15.666  0.5646E-10  0.5646E-10  0.1200E-01  0.1200E-01
    -15.566  0.1083E-10  0.1083E-10  0.1200E-01  0.1200E-01
    -15.466  0.9397E-05  0.9397E-05  0.1200E-01  0.1200E-01
    -15.366  0.5938E-02  0.5938E-02  0.1259E-01  0.1259E-01
    -15.266  0.1382E-01  0.1382E-01  0.1397E-01  0.1397E-01
    -15.166  0.2510E-03  0.2510E-03  0.1400E-01  0.1400E-01
    -15.067  0.5083E-08  0.5083E-08  0.1400E-01  0.1400E-01
    -14.967  0.2887E-11  0.2887E-11  0.1400E-01  0.1400E-01
    -14.867  0.3758E-05  0.3758E-05  0.1400E-01  0.1400E-01
    -14.767  0.3052E-02  0.3052E-02  0.1431E-01  0.1431E-01
    -14.667  0.2167E-01  0.2167E-01  0.1647E-01  0.1647E-01
    -14.567  0.2644E-01  0.2644E-01  0.1911E-01  0.1911E-01
    -14.467  0.1737E-01  0.1737E-01  0.2085E-01  0.2085E-01
    -14.367  0.1523E-02  0.1523E-02  0.2100E-01  0.2100E-01
    -14.267  0.1916E-02  0.1916E-02  0.2119E-01  0.2119E-01
    -14.167  0.2966E-01  0.2966E-01  0.2416E-01  0.2416E-01
    -14.067  0.8462E-02  0.8462E-02  0.2500E-01  0.2500E-01
    -13.967  0.5319E-02  0.5319E-02  0.2553E-01  0.2553E-01
    -13.867  0.1334E-01  0.1334E-01  0.2687E-01  0.2687E-01
    -13.768  0.1349E-02  0.1349E-02  0.2700E-01  0.2700E-01
    -13.668  0.4048E-06  0.4048E-06  0.2700E-01  0.2700E-01
    -13.568  0.6534E-13  0.6534E-13  0.2700E-01  0.2700E-01
    -13.468  0.0000E+00  0.0000E+00  0.2700E-01  0.2700E-01
    -13.368  0.0000E+00  0.0000E+00  0.2700E-01  0.2700E-01
    -13.268  0.0000E+00  0.0000E+00  0.2700E-01  0.2700E-01
    -13.168  0.0000E+00  0.0000E+00  0.2700E-01  0.2700E-01
    -13.068  0.0000E+00  0.0000E+00  0.2700E-01  0.2700E-01
    -12.968  0.0000E+00  0.0000E+00  0.2700E-01  0.2700E-01
    -12.868  0.0000E+00  0.0000E+00  0.2700E-01  0.2700E-01
    -12.768  0.0000E+00  0.0000E+00  0.2700E-01  0.2700E-01
    -12.668  0.0000E+00  0.0000E+00  0.2700E-01  0.2700E-01
    -12.569  0.0000E+00  0.0000E+00  0.2700E-01  0.2700E-01
    -12.469  0.0000E+00  0.0000E+00  0.2700E-01  0.2700E-01
    -12.369  0.0000E+00  0.0000E+00  0.2700E-01  0.2700E-01
    -12.269  0.6667E-17  0.6667E-17  0.2700E-01  0.2700E-01
    -12.169  0.1200E-08  0.1200E-08  0.2700E-01  0.2700E-01
    -12.069  0.9757E-04  0.9757E-04  0.2701E-01  0.2701E-01
    -11.969  0.9364E-02  0.9364E-02  0.2795E-01  0.2795E-01
    -11.869  0.3506E-01  0.3506E-01  0.3145E-01  0.3145E-01
    -11.769  0.1704E-01  0.1704E-01  0.3315E-01  0.3315E-01
    -11.669  0.1521E-01  0.1521E-01  0.3467E-01  0.3467E-01
    -11.569  0.7849E-02  0.7849E-02  0.3545E-01  0.3545E-01
    -11.469  0.6663E-02  0.6663E-02  0.3612E-01  0.3612E-01
    -11.369  0.2203E-01  0.2203E-01  0.3832E-01  0.3832E-01
    -11.270  0.2188E-01  0.2188E-01  0.4051E-01  0.4051E-01
    -11.170  0.5113E-02  0.5113E-02  0.4102E-01  0.4102E-01
    -11.070  0.7654E-02  0.7654E-02  0.4178E-01  0.4178E-01
    -10.970  0.6705E-02  0.6705E-02  0.4245E-01  0.4245E-01
    -10.870  0.5439E-02  0.5439E-02  0.4300E-01  0.4300E-01
    -10.770  0.3377E-04  0.3377E-04  0.4300E-01  0.4300E-01
    -10.670  0.1555E-09  0.1555E-09  0.4300E-01  0.4300E-01
    -10.570  0.0000E+00  0.0000E+00  0.4300E-01  0.4300E-01
    -10.470  0.0000E+00  0.0000E+00  0.4300E-01  0.4300E-01
    -10.370  0.0000E+00  0.0000E+00  0.4300E-01  0.4300E-01
    -10.270  0.0000E+00  0.0000E+00  0.4300E-01  0.4300E-01
    -10.170  0.3728E-13  0.3728E-13  0.4300E-01  0.4300E-01
    -10.070  0.2881E-06  0.2881E-06  0.4300E-01  0.4300E-01
     -9.971  0.1159E-02  0.1159E-02  0.4312E-01  0.4312E-01
     -9.871  0.9731E-02  0.9731E-02  0.4409E-01  0.4409E-01
     -9.771  0.1440E-01  0.1440E-01  0.4553E-01  0.4553E-01
     -9.671  0.2593E-01  0.2593E-01  0.4812E-01  0.4812E-01
     -9.571  0.8786E-02  0.8786E-02  0.4900E-01  0.4900E-01
     -9.471  0.3337E-04  0.3337E-04  0.4900E-01  0.4900E-01
     -9.371  0.9410E-08  0.9410E-08  0.4900E-01  0.4900E-01
     -9.271  0.2608E-03  0.2608E-03  0.4903E-01  0.4903E-01
     -9.171  0.7862E-02  0.7862E-02  0.4981E-01  0.4981E-01
     -9.071  0.1884E-02  0.1884E-02  0.5000E-01  0.5000E-01
     -8.971  0.1036E-05  0.1036E-05  0.5000E-01  0.5000E-01
     -8.871  0.3151E-12  0.3151E-12  0.5000E-01  0.5000E-01
     -8.771  0.0000E+00  0.0000E+00  0.5000E-01  0.5000E-01
     -8.672  0.5000E-17  0.5000E-17  0.5000E-01  0.5000E-01
     -8.572  0.9674E-09  0.9674E-09  0.5000E-01  0.5000E-01
     -8.472  0.9179E-04  0.9179E-04  0.5001E-01  0.5001E-01
     -8.372  0.9898E-02  0.9898E-02  0.5100E-01  0.5100E-01
     -8.272  0.1107E-01  0.1107E-01  0.5210E-01  0.5210E-01
     -8.172  0.1025E-01  0.1025E-01  0.5313E-01  0.5313E-01
     -8.072  0.1680E-01  0.1680E-01  0.5481E-01  0.5481E-01
     -7.972  0.2985E-01  0.2985E-01  0.5779E-01  0.5779E-01
     -7.872  0.1205E-01  0.1205E-01  0.5899E-01  0.5899E-01
     -7.772  0.5211E-04  0.5211E-04  0.5900E-01  0.5900E-01
     -7.672  0.1862E-03  0.1862E-03  0.5902E-01  0.5902E-01
     -7.572  0.1322E-01  0.1322E-01  0.6034E-01  0.6034E-01
     -7.472  0.2195E-01  0.2195E-01  0.6253E-01  0.6253E-01
     -7.373  0.2617E-01  0.2617E-01  0.6515E-01  0.6515E-01
     -7.273  0.2525E-01  0.2525E-01  0.6767E-01  0.6767E-01
     -7.173  0.2779E-01  0.2779E-01  0.7045E-01  0.7045E-01
     -7.073  0.6458E-02  0.6458E-02  0.7109E-01  0.7109E-01
     -6.973  0.8783E-02  0.8783E-02  0.7197E-01  0.7197E-01
     -6.873  0.1614E-01  0.1614E-01  0.7358E-01  0.7358E-01
     -6.773  0.1350E-01  0.1350E-01  0.7493E-01  0.7493E-01
     -6.673  0.5339E-02  0.5339E-02  0.7547E-01  0.7547E-01
     -6.573  0.8256E-02  0.8256E-02  0.7629E-01  0.7629E-01
     -6.473  0.1576E-01  0.1576E-01  0.7786E-01  0.7786E-01
     -6.373  0.1756E-01  0.1756E-01  0.7962E-01  0.7962E-01
     -6.273  0.7460E-02  0.7460E-02  0.8037E-01  0.8037E-01
     -6.173  0.1272E-01  0.1272E-01  0.8164E-01  0.8164E-01
     -6.074  0.7741E-02  0.7741E-02  0.8241E-01  0.8241E-01
     -5.974  0.1181E-01  0.1181E-01  0.8359E-01  0.8359E-01
     -5.874  0.1460E-01  0.1460E-01  0.8505E-01  0.8505E-01
     -5.774  0.1004E-01  0.1004E-01  0.8605E-01  0.8605E-01
     -5.674  0.2060E-01  0.2060E-01  0.8811E-01  0.8811E-01
     -5.574  0.2449E-01  0.2449E-01  0.9056E-01  0.9056E-01
     -5.474  0.4422E-02  0.4422E-02  0.9100E-01  0.9100E-01
     -5.374  0.5480E-03  0.5480E-03  0.9105E-01  0.9105E-01
     -5.274  0.1436E-01  0.1436E-01  0.9249E-01  0.9249E-01
     -5.174  0.1323E-01  0.1323E-01  0.9381E-01  0.9381E-01
     -5.074  0.9853E-02  0.9853E-02  0.9480E-01  0.9480E-01
     -4.974  0.1163E-01  0.1163E-01  0.9596E-01  0.9596E-01
     -4.874  0.1207E-01  0.1207E-01  0.9716E-01  0.9716E-01
     -4.775  0.1375E-01  0.1375E-01  0.9854E-01  0.9854E-01
     -4.675  0.1360E-01  0.1360E-01  0.9990E-01  0.9990E-01
     -4.575  0.1502E-01  0.1502E-01  0.1014E+00  0.1014E+00
     -4.475  0.2440E-01  0.2440E-01  0.1038E+00  0.1038E+00
     -4.375  0.1546E-01  0.1546E-01  0.1054E+00  0.1054E+00
     -4.275  0.1679E-01  0.1679E-01  0.1071E+00  0.1071E+00
     -4.175  0.1828E-01  0.1828E-01  0.1089E+00  0.1089E+00
     -4.075  0.2204E-01  0.2204E-01  0.1111E+00  0.1111E+00
     -3.975  0.1452E-01  0.1452E-01  0.1125E+00  0.1125E+00
     -3.875  0.1646E-01  0.1646E-01  0.1142E+00  0.1142E+00
     -3.775  0.3191E-01  0.3191E-01  0.1174E+00  0.1174E+00
     -3.675  0.2187E-01  0.2187E-01  0.1196E+00  0.1196E+00
     -3.575  0.1837E-01  0.1837E-01  0.1214E+00  0.1214E+00
     -3.476  0.3055E-01  0.3055E-01  0.1244E+00  0.1244E+00
     -3.376  0.1451E-01  0.1451E-01  0.1259E+00  0.1259E+00
     -3.276  0.1017E-01  0.1017E-01  0.1269E+00  0.1269E+00
     -3.176  0.9525E-03  0.9525E-03  0.1270E+00  0.1270E+00
     -3.076  0.6017E-02  0.6017E-02  0.1276E+00  0.1276E+00
     -2.976  0.8430E-02  0.8430E-02  0.1284E+00  0.1284E+00
     -2.876  0.5482E-02  0.5482E-02  0.1290E+00  0.1290E+00
     -2.776  0.1359E-02  0.1359E-02  0.1291E+00  0.1291E+00
     -2.676  0.9212E-02  0.9212E-02  0.1301E+00  0.1301E+00
     -2.576  0.1557E-01  0.1557E-01  0.1316E+00  0.1316E+00
     -2.476  0.4304E-02  0.4304E-02  0.1320E+00  0.1320E+00
     -2.376  0.1113E-01  0.1113E-01  0.1332E+00  0.1332E+00
     -2.276  0.8558E-02  0.8558E-02  0.1340E+00  0.1340E+00
     -2.177  0.7567E-02  0.7567E-02  0.1348E+00  0.1348E+00
     -2.077  0.2376E-02  0.2376E-02  0.1350E+00  0.1350E+00
     -1.977  0.2001E-05  0.2001E-05  0.1350E+00  0.1350E+00
     -1.877  0.9685E-12  0.9685E-12  0.1350E+00  0.1350E+00
     -1.777  0.0000E+00  0.0000E+00  0.1350E+00  0.1350E+00
     -1.677  0.0000E+00  0.0000E+00  0.1350E+00  0.1350E+00
     -1.577  0.0000E+00  0.0000E+00  0.1350E+00  0.1350E+00
     -1.477  0.8903E-11  0.8903E-11  0.1350E+00  0.1350E+00
     -1.377  0.7106E-05  0.7106E-05  0.1350E+00  0.1350E+00
     -1.277  0.3574E-02  0.3574E-02  0.1354E+00  0.1354E+00
     -1.177  0.6574E-02  0.6574E-02  0.1360E+00  0.1360E+00
     -1.077  0.7753E-02  0.7753E-02  0.1368E+00  0.1368E+00
     -0.978  0.2117E-02  0.2117E-02  0.1370E+00  0.1370E+00
     -0.878  0.4452E-02  0.4452E-02  0.1374E+00  0.1374E+00
     -0.778  0.2267E-01  0.2267E-01  0.1397E+00  0.1397E+00
     -0.678  0.2446E-01  0.2446E-01  0.1422E+00  0.1422E+00
     -0.578  0.9786E-02  0.9786E-02  0.1431E+00  0.1431E+00
     -0.478  0.8306E-02  0.8306E-02  0.1440E+00  0.1440E+00
     -0.378  0.9601E-02  0.9601E-02  0.1449E+00  0.1449E+00
     -0.278  0.2864E-01  0.2864E-01  0.1478E+00  0.1478E+00
     -0.178  0.2167E-01  0.2167E-01  0.1499E+00  0.1499E+00
     -0.078  0.1247E-01  0.1247E-01  0.1512E+00  0.1512E+00
      0.022  0.1984E-01  0.1984E-01  0.1532E+00  0.1532E+00
      0.122  0.8199E-02  0.8199E-02  0.1540E+00  0.1540E+00
      0.222  0.8858E-02  0.8858E-02  0.1549E+00  0.1549E+00
      0.321  0.2485E-01  0.2485E-01  0.1574E+00  0.1574E+00
      0.421  0.1968E-01  0.1968E-01  0.1593E+00  0.1593E+00
      0.521  0.3056E-01  0.3056E-01  0.1624E+00  0.1624E+00
      0.621  0.1795E-01  0.1795E-01  0.1642E+00  0.1642E+00
      0.721  0.1483E-01  0.1483E-01  0.1657E+00  0.1657E+00
      0.821  0.5309E-02  0.5309E-02  0.1662E+00  0.1662E+00
      0.921  0.1541E-01  0.1541E-01  0.1677E+00  0.1677E+00
      1.021  0.2632E-01  0.2632E-01  0.1704E+00  0.1704E+00
      1.121  0.3828E-01  0.3828E-01  0.1742E+00  0.1742E+00
      1.221  0.2221E-01  0.2221E-01  0.1764E+00  0.1764E+00
      1.321  0.1609E-01  0.1609E-01  0.1780E+00  0.1780E+00
      1.421  0.2072E-01  0.2072E-01  0.1801E+00  0.1801E+00
      1.521  0.1679E-01  0.1679E-01  0.1818E+00  0.1818E+00
      1.620  0.1216E-01  0.1216E-01  0.1830E+00  0.1830E+00
      1.720  0.1093E-02  0.1093E-02  0.1831E+00  0.1831E+00
      1.820  0.8426E-02  0.8426E-02  0.1839E+00  0.1839E+00
      1.920  0.8259E-03  0.8259E-03  0.1840E+00  0.1840E+00
      2.020  0.7599E-02  0.7599E-02  0.1848E+00  0.1848E+00
      2.120  0.1799E-01  0.1799E-01  0.1866E+00  0.1866E+00
      2.220  0.1265E-01  0.1265E-01  0.1878E+00  0.1878E+00
      2.320  0.1134E-01  0.1134E-01  0.1890E+00  0.1890E+00
      2.420  0.3657E-03  0.3654E-03  0.1890E+00  0.1890E+00
      2.520  0.1877E-07  0.1873E-07  0.1890E+00  0.1890E+00
      2.620  0.4644E-15  0.4622E-15  0.1890E+00  0.1890E+00
      2.720  0.0000E+00  0.0000E+00  0.1890E+00  0.1890E+00
      2.820  0.0000E+00  0.0000E+00  0.1890E+00  0.1890E+00
      2.919  0.0000E+00  0.0000E+00  0.1890E+00  0.1890E+00
      3.019  0.0000E+00  0.0000E+00  0.1890E+00  0.1890E+00
      3.119  0.0000E+00  0.0000E+00  0.1890E+00  0.1890E+00
      3.219  0.0000E+00  0.0000E+00  0.1890E+00  0.1890E+00
      3.319  0.0000E+00  0.0000E+00  0.1890E+00  0.1890E+00
      3.419  0.0000E+00  0.0000E+00  0.1890E+00  0.1890E+00
      3.519  0.0000E+00  0.0000E+00  0.1890E+00  0.1890E+00
      3.619  0.0000E+00  0.0000E+00  0.1890E+00  0.1890E+00
