   53   53 1000    2
  0.6566630E+02  0.1325440E-08  0.1312890E-08  0.2000000E-08  0.2000000E-15
  1.000000000000000E-004
  CAR 
 TS_BlakPhos                             
    270      1    189
 
  0.1262379E-14  0.1262379E-14  0.1262379E-14  0.1000000E+01
    1      -24.995219    -24.995219
    2      -22.937145    -22.937144
    3      -18.761831    -18.761831
    4      -17.346737    -17.346737
    5      -16.763668    -16.763668
    6      -16.725424    -16.725424
    7      -16.633809    -16.633809
    8      -16.582760    -16.582760
    9      -16.069947    -16.069947
   10      -16.037864    -16.037864
   11      -16.022641    -16.022641
   12      -15.967907    -15.967907
   13      -15.354129    -15.354129
   14      -15.340127    -15.340127
   15      -14.747558    -14.747558
   16      -14.685722    -14.685722
   17      -14.655898    -14.655898
   18      -14.646993    -14.646993
   19      -14.624205    -14.624205
   20      -14.526450    -14.526450
   21      -14.511197    -14.511197
   22      -14.227931    -14.227931
   23      -14.205435    -14.205435
   24      -14.186567    -14.186567
   25      -14.179104    -14.179104
   26      -13.966427    -13.966427
   27      -13.906934    -13.906934
   28      -11.986185    -11.986185
   29      -11.935709    -11.935709
   30      -11.912905    -11.912905
   31      -11.900443    -11.900443
   32      -11.867439    -11.867439
   33      -11.849594    -11.849594
   34      -11.733051    -11.733051
   35      -11.688115    -11.688115
   36      -11.565234    -11.565234
   37      -11.426447    -11.426447
   38      -11.386204    -11.386204
   39      -11.361737    -11.361737
   40      -11.348352    -11.348352
   41      -11.271757    -11.271757
   42      -11.097152    -11.097152
   43      -10.965598    -10.965598
   44       -9.928225     -9.928225
   45       -9.832156     -9.832156
   46       -9.763351     -9.763351
   47       -9.732247     -9.732247
   48       -9.688324     -9.688324
   49       -9.668423     -9.668423
   50       -9.202395     -9.202395
   51       -8.387523     -8.387523
   52       -8.355824     -8.355824
   53       -8.229195     -8.229195
   54       -8.138139     -8.138139
   55       -8.092004     -8.092004
   56       -8.025585     -8.025585
   57       -7.999489     -7.999489
   58       -7.986411     -7.986411
   59       -7.964698     -7.964698
   60       -7.595682     -7.595682
   61       -7.576934     -7.576934
   62       -7.508510     -7.508510
   63       -7.487151     -7.487151
   64       -7.397153     -7.397153
   65       -7.386652     -7.386652
   66       -7.377679     -7.377679
   67       -7.339981     -7.339981
   68       -7.256227     -7.256227
   69       -7.250219     -7.250219
   70       -7.230104     -7.230104
   71       -7.174787     -7.174787
   72       -7.026539     -7.026539
   73       -6.904358     -6.904358
   74       -6.889558     -6.889558
   75       -6.825444     -6.825444
   76       -6.670003     -6.670003
   77       -6.553158     -6.553158
   78       -6.487567     -6.487567
   79       -6.445043     -6.445043
   80       -6.386105     -6.386105
   81       -6.260660     -6.260660
   82       -6.186319     -6.186319
   83       -6.065300     -6.065300
   84       -5.974350     -5.974350
   85       -5.925339     -5.925339
   86       -5.832687     -5.832687
   87       -5.720683     -5.720683
   88       -5.708803     -5.708803
   89       -5.648938     -5.648938
   90       -5.631907     -5.631907
   91       -5.585187     -5.585187
   92       -5.315719     -5.315719
   93       -5.281854     -5.281854
   94       -5.203359     -5.203359
   95       -5.099431     -5.099431
   96       -5.009929     -5.009929
   97       -4.932012     -4.932012
   98       -4.846360     -4.846360
   99       -4.775776     -4.775776
  100       -4.714689     -4.714689
  101       -4.605399     -4.605399
  102       -4.575025     -4.575025
  103       -4.524126     -4.524126
  104       -4.492690     -4.492690
  105       -4.448177     -4.448177
  106       -4.352196     -4.352196
  107       -4.336572     -4.336572
  108       -4.229514     -4.229514
  109       -4.196702     -4.196702
  110       -4.140209     -4.140209
  111       -4.117905     -4.117905
  112       -4.048953     -4.048953
  113       -3.976353     -3.976353
  114       -3.914084     -3.914084
  115       -3.843202     -3.843202
  116       -3.831221     -3.831221
  117       -3.807077     -3.807077
  118       -3.782741     -3.782741
  119       -3.717084     -3.717084
  120       -3.688570     -3.688570
  121       -3.609110     -3.609110
  122       -3.567443     -3.567443
  123       -3.529533     -3.529533
  124       -3.517678     -3.517678
  125       -3.484434     -3.484434
  126       -3.408783     -3.408783
  127       -3.323145     -3.323145
  128       -3.085274     -3.085274
  129       -2.971486     -2.971486
  130       -2.736665     -2.736665
  131       -2.628175     -2.628175
  132       -2.592749     -2.592749
  133       -2.413887     -2.413887
  134       -2.357436     -2.357436
  135       -2.201810     -2.201810
  136       -1.264388     -1.264388
  137       -1.105853     -1.105853
  138       -0.868377     -0.868377
  139       -0.816206     -0.816206
  140       -0.790650     -0.790650
  141       -0.746239     -0.746239
  142       -0.706851     -0.706851
  143       -0.667627     -0.667627
  144       -0.539442     -0.539442
  145       -0.383579     -0.383579
  146       -0.351103     -0.351103
  147       -0.338135     -0.338135
  148       -0.288611     -0.288611
  149       -0.247190     -0.247190
  150       -0.216291     -0.216291
  151       -0.135689     -0.135689
  152       -0.051133     -0.051133
  153       -0.008062     -0.008062
  154        0.030956      0.030956
  155        0.229827      0.229827
  156        0.231231      0.231231
  157        0.271011      0.271011
  158        0.331236      0.331236
  159        0.376583      0.376583
  160        0.443476      0.443476
  161        0.463235      0.463235
  162        0.478837      0.478837
  163        0.526322      0.526322
  164        0.563031      0.563031
  165        0.648290      0.648290
  166        0.704683      0.704683
  167        0.853071      0.853071
  168        0.906098      0.906098
  169        0.974587      0.974587
  170        0.988694      0.988694
  171        1.026417      1.026417
  172        1.060161      1.060161
  173        1.076321      1.076321
  174        1.115063      1.115063
  175        1.125427      1.125427
  176        1.137295      1.137295
  177        1.229147      1.229147
  178        1.300326      1.300326
  179        1.344698      1.344698
  180        1.378557      1.378557
  181        1.448899      1.448899
  182        1.513765      1.513765
  183        1.549559      1.549559
  184        1.768807      1.768807
  185        2.002501      2.002501
  186        2.072132      2.072132
  187        2.106885      2.106885
  188        2.203568      2.203568
  189        2.256353      2.256338
