 vasp.5.3.5 31Mar14 (build Oct 09 2016 14:59:48) gamma-only                     
  
 POSCAR found type information on POSCAR  P  Ru C  O 
 04/POSCAR found :  4 types and      53 ions
 scaLAPACK will be used

 ----------------------------------------------------------------------------- 
|                                                                             |
|           W    W    AA    RRRRR   N    N  II  N    N   GGGG   !!!           |
|           W    W   A  A   R    R  NN   N  II  NN   N  G    G  !!!           |
|           W    W  A    A  R    R  N N  N  II  N N  N  G       !!!           |
|           W WW W  AAAAAA  RRRRR   N  N N  II  N  N N  G  GGG   !            |
|           WW  WW  A    A  R   R   N   NN  II  N   NN  G    G                |
|           W    W  A    A  R    R  N    N  II  N    N   GGGG   !!!           |
|                                                                             |
|      For optimal performance we recommend to set                            |
|        NCORE= 4 - approx SQRT( number of cores)                             |
|      NCORE specifies how many cores store one orbital (NPAR=cpu/NCORE).     |
|      This setting can  greatly improve the performance of VASP for DFT.     |
|      The default, NPAR=number of cores might be grossly inefficient         |
|      on modern multi-core architectures or massively parallel machines.     |
|      Do your own testing !!!!                                               |
|      Unfortunately you need to use the default for GW and RPA calculations. |
|      (for HF NCORE is supported but not extensively tested yet)             |
|                                                                             |
 ----------------------------------------------------------------------------- 

 LDA part: xc-table for Pade appr. of Perdew
 WARNING: it is not advised to use IBRION=2 with the NEB.
 POSCAR found type information on POSCAR  P  Ru C  O 
 00/POSCAR found :  4 types and      53 ions
 POSCAR found type information on POSCAR  P  Ru C  O 
 05/POSCAR found :  4 types and      53 ions
 Jacobian:    29.3710031138459     
 POSCAR, INCAR and KPOINTS ok, starting setup
 FFT: planning ...
 WAVECAR not read
 WARNING: chargedensity file is incomplete
 entering main loop
       N       E                     dE             d eps       ncg     rms          rms(c)
RMM:   1     0.351158027161E+04    0.35116E+04   -0.72925E+04   378   0.928E+02
RMM:   2     0.120498826504E+04   -0.23066E+04   -0.25163E+04   378   0.202E+02
RMM:   3     0.418150057723E+03   -0.78684E+03   -0.10607E+04   378   0.117E+02
RMM:   4    -0.294610877632E+01   -0.42110E+03   -0.41247E+03   378   0.915E+01
RMM:   5    -0.173877169026E+03   -0.17093E+03   -0.14744E+03   378   0.599E+01
RMM:   6    -0.238324228752E+03   -0.64447E+02   -0.55141E+02   378   0.381E+01
RMM:   7    -0.263526905114E+03   -0.25203E+02   -0.22315E+02   378   0.241E+01
RMM:   8    -0.274412959478E+03   -0.10886E+02   -0.96545E+01   378   0.158E+01
RMM:   9    -0.279205325814E+03   -0.47924E+01   -0.44281E+01   378   0.106E+01
RMM:  10    -0.281529932983E+03   -0.23246E+01   -0.21315E+01   378   0.738E+00
RMM:  11    -0.282661278287E+03   -0.11313E+01   -0.10665E+01   378   0.518E+00
RMM:  12    -0.283255704848E+03   -0.59443E+00   -0.55209E+00   378   0.376E+00
RMM:  13    -0.283563882844E+03   -0.30818E+00   -0.29386E+00   378   0.272E+00
RMM:  14    -0.283736320664E+03   -0.17244E+00   -0.16184E+00   378   0.204E+00
RMM:  15    -0.283957762649E+03   -0.22144E+00   -0.21744E+00  1003   0.152E+00
RMM:  16    -0.283977600509E+03   -0.19838E-01   -0.17525E-01  1026   0.309E-01
RMM:  17    -0.283983601401E+03   -0.60009E-02   -0.35438E-02  1016   0.102E-01
RMM:  18    -0.283987374998E+03   -0.37736E-02   -0.21673E-02   934   0.424E-02
RMM:  19    -0.283991288048E+03   -0.39131E-02   -0.18158E-02   800   0.168E-02
RMM:  20    -0.283993118075E+03   -0.18300E-02   -0.91796E-03   650   0.778E-03    0.289E+01
RMM:  21    -0.292520681872E+03   -0.85276E+01   -0.72657E+00   768   0.445E+00    0.130E+01
RMM:  22    -0.291929885298E+03    0.59080E+00   -0.24447E+00   771   0.250E+00    0.822E+00
RMM:  23    -0.291423469183E+03    0.50642E+00   -0.14056E+00   765   0.223E+00    0.439E+00
RMM:  24    -0.291236898737E+03    0.18657E+00   -0.71437E-01   765   0.128E+00    0.180E+00
RMM:  25    -0.291187807515E+03    0.49091E-01   -0.95891E-02   775   0.592E-01    0.753E-01
RMM:  26    -0.291175072210E+03    0.12735E-01   -0.27911E-02   767   0.259E-01    0.420E-01
RMM:  27    -0.291171311613E+03    0.37606E-02   -0.18396E-02   759   0.212E-01    0.176E-01
RMM:  28    -0.291171017052E+03    0.29456E-03   -0.28391E-03   774   0.111E-01    0.834E-02
RMM:  29    -0.291170970981E+03    0.46071E-04   -0.69199E-04   796   0.435E-02    0.466E-02
RMM:  30    -0.291170965775E+03    0.52067E-05   -0.17458E-04   767   0.240E-02    0.205E-02
RMM:  31    -0.291170973120E+03   -0.73454E-05   -0.43408E-05   774   0.119E-02    0.108E-02
RMM:  32    -0.291170972694E+03    0.42561E-06   -0.94420E-06   697   0.585E-03
   1 F= -.29114188E+03 E0= -.29114188E+03  d E =-.291142E+03  mag=    -0.0004
 curvature:   0.00 expect dE= 0.000E+00 dE for cont linesearch  0.000E+00
 trial: gam= 0.00000 g(F)=  0.289E+02 g(S)=  0.000E+00 ort = 0.000E+00 (trialstep = 0.100E+01)
 search vector abs. value=  0.289E+02
 bond charge predicted
       N       E                     dE             d eps       ncg     rms          rms(c)
RMM:   1    -0.291299339149E+03   -0.12837E+00   -0.25044E+01   766   0.819E+00    0.137E+00
RMM:   2    -0.291155604847E+03    0.14373E+00   -0.32430E-01   762   0.902E-01    0.113E+00
RMM:   3    -0.291147451029E+03    0.81538E-02   -0.13217E-02   891   0.171E-01    0.927E-01
RMM:   4    -0.291158793274E+03   -0.11342E-01   -0.10245E-01   759   0.381E-01    0.653E-01
RMM:   5    -0.291152435486E+03    0.63578E-02   -0.42579E-03   770   0.111E-01    0.483E-01
RMM:   6    -0.291148178739E+03    0.42567E-02   -0.19518E-02   766   0.157E-01    0.931E-02
RMM:   7    -0.291148455002E+03   -0.27626E-03   -0.11696E-03   836   0.456E-02    0.677E-02
RMM:   8    -0.291148497416E+03   -0.42414E-04   -0.24961E-04   711   0.205E-02    0.575E-02
RMM:   9    -0.291148519406E+03   -0.21991E-04   -0.74934E-05   694   0.133E-02    0.365E-02
RMM:  10    -0.291148513169E+03    0.62372E-05   -0.20407E-04   706   0.172E-02    0.156E-02
RMM:  11    -0.291148508773E+03    0.43964E-05   -0.11335E-05   590   0.635E-03    0.107E-02
RMM:  12    -0.291148506815E+03    0.19576E-05   -0.35144E-06   513   0.272E-03    0.573E-03
RMM:  13    -0.291148506295E+03    0.51986E-06   -0.27812E-06   483   0.227E-03
   2 F= -.29112034E+03 E0= -.29112034E+03  d E =0.215384E-01  mag=     0.0000
 trial-energy change:    0.021538  1 .order  -11.207181  -28.879122    6.464761
 step:   0.8171(harm=  0.8171)  dis= 0.04575  next Energy=  -302.940293 (dE=-0.118E+02)
 bond charge predicted
       N       E                     dE             d eps       ncg     rms          rms(c)
RMM:   1    -0.291159495206E+03   -0.10988E-01   -0.84348E-01   766   0.153E+00    0.235E-01
RMM:   2    -0.291155853134E+03    0.36421E-02   -0.70090E-03   762   0.135E-01    0.186E-01
RMM:   3    -0.291155881259E+03   -0.28125E-04   -0.51418E-04   785   0.338E-02    0.977E-02
RMM:   4    -0.291156065959E+03   -0.18470E-03   -0.16656E-04   722   0.208E-02    0.248E-02
RMM:   5    -0.291156088304E+03   -0.22345E-04   -0.19762E-05   671   0.751E-03    0.144E-02
RMM:   6    -0.291156093521E+03   -0.52173E-05   -0.81991E-06   579   0.408E-03    0.864E-03
RMM:   7    -0.291156094273E+03   -0.75174E-06   -0.30229E-06   527   0.325E-03
   3 F= -.29112776E+03 E0= -.29112776E+03  d E =0.141161E-01  mag=    -0.0000
 curvature:  -0.41 expect dE=-0.156E+01 dE for cont linesearch -0.367E+00
 ZBRENT: interpolating
 opt :   0.6946  next Energy=  -291.439559 (dE=-0.298E+00)
 bond charge predicted
       N       E                     dE             d eps       ncg     rms          rms(c)
RMM:   1    -0.291161773685E+03   -0.56802E-02   -0.37817E-01   766   0.102E+00    0.156E-01
RMM:   2    -0.291160141439E+03    0.16322E-02   -0.31330E-03   762   0.904E-02    0.125E-01
RMM:   3    -0.291160183961E+03   -0.42523E-04   -0.25749E-04   772   0.237E-02    0.602E-02
RMM:   4    -0.291160266478E+03   -0.82516E-04   -0.64129E-05   695   0.130E-02    0.182E-02
RMM:   5    -0.291160280144E+03   -0.13666E-04   -0.10925E-05   629   0.531E-03    0.101E-02
RMM:   6    -0.291160283175E+03   -0.30312E-05   -0.35055E-06   531   0.299E-03    0.697E-03
RMM:   7    -0.291160283715E+03   -0.54015E-06   -0.14319E-06   492   0.260E-03
   4 F= -.29113183E+03 E0= -.29113183E+03  d E =0.100507E-01  mag=     0.0000
 curvature:  -0.35 expect dE=-0.965E+00 dE for cont linesearch -0.165E+00
 ZBRENT: interpolating
 opt :   0.4035  next Energy=  -291.733050 (dE=-0.591E+00)
 bond charge predicted
       N       E                     dE             d eps       ncg     rms          rms(c)
RMM:   1    -0.291176512141E+03   -0.16229E-01   -0.21459E+00   766   0.243E+00    0.375E-01
RMM:   2    -0.291166993601E+03    0.95185E-02   -0.18295E-02   762   0.216E-01    0.295E-01
RMM:   3    -0.291166914543E+03    0.79058E-04   -0.11676E-03   828   0.504E-02    0.179E-01
RMM:   4    -0.291167396051E+03   -0.48151E-03   -0.59515E-04   756   0.385E-02    0.371E-02
RMM:   5    -0.291167416240E+03   -0.20190E-04   -0.52851E-05   708   0.122E-02    0.279E-02
RMM:   6    -0.291167422770E+03   -0.65301E-05   -0.22105E-05   687   0.633E-03    0.185E-02
RMM:   7    -0.291167430866E+03   -0.80956E-05   -0.14251E-05   638   0.579E-03    0.589E-03
RMM:   8    -0.291167432227E+03   -0.13606E-05   -0.16950E-06   510   0.250E-03    0.276E-03
RMM:   9    -0.291167432139E+03    0.87337E-07   -0.52913E-07   452   0.137E-03
   5 F= -.29113871E+03 E0= -.29113871E+03  d E =0.316560E-02  mag=    -0.0000
 curvature:  -1.26 expect dE=-0.195E+01 dE for cont linesearch -0.201E+00
 ZBRENT: interpolating
 opt :   0.5102  next Energy=  -291.253016 (dE=-0.111E+00)
 bond charge predicted
       N       E                     dE             d eps       ncg     rms          rms(c)
RMM:   1    -0.291166379030E+03    0.10532E-02   -0.28540E-01   766   0.888E-01    0.135E-01
RMM:   2    -0.291165162343E+03    0.12167E-02   -0.23893E-03   762   0.789E-02    0.109E-01
RMM:   3    -0.291165192568E+03   -0.30225E-04   -0.22507E-04   750   0.216E-02    0.534E-02
RMM:   4    -0.291165263471E+03   -0.70903E-04   -0.60372E-05   695   0.123E-02    0.214E-02
RMM:   5    -0.291165268257E+03   -0.47857E-05   -0.17223E-05   640   0.591E-03    0.116E-02
RMM:   6    -0.291165271127E+03   -0.28705E-05   -0.65778E-06   562   0.391E-03    0.685E-03
RMM:   7    -0.291165272344E+03   -0.12169E-05   -0.91606E-07   464   0.208E-03    0.456E-03
RMM:   8    -0.291165272868E+03   -0.52378E-06   -0.10699E-06   429   0.189E-03
   6 F= -.29113665E+03 E0= -.29113665E+03  d E =0.522899E-02  mag=     0.0000
 curvature:  -0.72 expect dE=-0.118E+01 dE for cont linesearch -0.744E-02
 ZBRENT: interpolating
 opt :   0.4885  next Energy=  -291.142574 (dE=-0.698E-03)
 bond charge predicted
       N       E                     dE             d eps       ncg     rms          rms(c)
RMM:   1    -0.291165799513E+03   -0.52717E-03   -0.11795E-02   764   0.180E-01    0.273E-02
RMM:   2    -0.291165741875E+03    0.57638E-04   -0.96729E-05   694   0.160E-02    0.220E-02
RMM:   3    -0.291165747794E+03   -0.59185E-05   -0.86826E-06   543   0.446E-03    0.977E-03
RMM:   4    -0.291165752740E+03   -0.49462E-05   -0.17806E-06   476   0.252E-03    0.355E-03
RMM:   5    -0.291165753258E+03   -0.51841E-06   -0.49910E-07   414   0.156E-03    0.245E-03
RMM:   6    -0.291165753363E+03   -0.10460E-06   -0.23328E-07   352   0.125E-03
   7 F= -.29113711E+03 E0= -.29113711E+03  d E =0.477033E-02  mag=     0.0000
 curvature:  -0.57 expect dE=-0.903E+00 dE for cont linesearch -0.747E-04
 trial: gam= 0.05676 g(F)=  0.158E+01 g(S)=  0.000E+00 ort =-0.614E-01 (trialstep = 0.898E+00)
 search vector abs. value=  0.166E+01
 bond charge predicted
       N       E                     dE             d eps       ncg     rms          rms(c)
RMM:   1    -0.291250314883E+03   -0.84562E-01   -0.19346E+01   765   0.732E+00    0.121E+00
RMM:   2    -0.291151385801E+03    0.98929E-01   -0.21900E-01   760   0.795E-01    0.918E-01
RMM:   3    -0.291146661251E+03    0.47246E-02   -0.11844E-02   894   0.155E-01    0.743E-01
RMM:   4    -0.291152747699E+03   -0.60864E-02   -0.35669E-02   779   0.245E-01    0.411E-01
RMM:   5    -0.291151414225E+03    0.13335E-02   -0.37575E-03   774   0.887E-02    0.299E-01
RMM:   6    -0.291149865605E+03    0.15486E-02   -0.11907E-03   761   0.436E-02    0.198E-01
RMM:   7    -0.291149258167E+03    0.60744E-03   -0.39636E-03   790   0.694E-02    0.531E-02
RMM:   8    -0.291149334758E+03   -0.76591E-04   -0.20968E-04   757   0.244E-02    0.405E-02
RMM:   9    -0.291149353286E+03   -0.18528E-04   -0.88360E-05   700   0.129E-02    0.279E-02
RMM:  10    -0.291149345471E+03    0.78152E-05   -0.13748E-04   730   0.138E-02    0.110E-02
RMM:  11    -0.291149344107E+03    0.13643E-05   -0.10338E-05   609   0.506E-03    0.973E-03
RMM:  12    -0.291149342262E+03    0.18447E-05   -0.18824E-06   501   0.228E-03    0.596E-03
RMM:  13    -0.291149341583E+03    0.67884E-06   -0.50344E-06   515   0.259E-03
   8 F= -.29112010E+03 E0= -.29112010E+03  d E =0.170109E-01  mag=     0.0000
 trial-energy change:    0.017011  1 .order   -0.411562   -1.413137    0.590013
 step:   0.6333(harm=  0.6333)  dis= 0.03133  next Energy=  -291.635560 (dE=-0.498E+00)
 bond charge predicted
       N       E                     dE             d eps       ncg     rms          rms(c)
RMM:   1    -0.291163357809E+03   -0.14016E-01   -0.16810E+00   764   0.221E+00    0.327E-01
RMM:   2    -0.291155559003E+03    0.77988E-02   -0.14769E-02   760   0.211E-01    0.264E-01
RMM:   3    -0.291155694947E+03   -0.13594E-03   -0.13029E-03   825   0.533E-02    0.123E-01
RMM:   4    -0.291155932872E+03   -0.23793E-03   -0.39259E-04   778   0.284E-02    0.568E-02
RMM:   5    -0.291155960850E+03   -0.27978E-04   -0.13257E-04   723   0.172E-02    0.296E-02
RMM:   6    -0.291155975480E+03   -0.14630E-04   -0.16224E-05   660   0.623E-03    0.193E-02
RMM:   7    -0.291155978168E+03   -0.26879E-05   -0.11799E-05   608   0.526E-03    0.752E-03
RMM:   8    -0.291155978563E+03   -0.39489E-06   -0.29869E-06   524   0.319E-03
   9 F= -.29112691E+03 E0= -.29112691E+03  d E =0.101994E-01  mag=     0.0000
 curvature:  -0.33 expect dE=-0.422E+00 dE for cont linesearch -0.156E-02
 trial: gam= 0.75523 g(F)=  0.126E+01 g(S)=  0.000E+00 ort = 0.882E-01 (trialstep = 0.600E+00)
 search vector abs. value=  0.234E+01
 bond charge predicted
       N       E                     dE             d eps       ncg     rms          rms(c)
RMM:   1    -0.291255506419E+03   -0.99528E-01   -0.22053E+01   764   0.785E+00    0.129E+00
RMM:   2    -0.291138727741E+03    0.11678E+00   -0.26179E-01   760   0.872E-01    0.963E-01
RMM:   3    -0.291132944002E+03    0.57837E-02   -0.15994E-02   906   0.178E-01    0.790E-01
RMM:   4    -0.291137655794E+03   -0.47118E-02   -0.30084E-02   776   0.232E-01    0.448E-01
RMM:   5    -0.291138550515E+03   -0.89472E-03   -0.73398E-03   779   0.113E-01    0.327E-01
RMM:   6    -0.291136427297E+03    0.21232E-02   -0.13291E-03   760   0.494E-02    0.213E-01
RMM:   7    -0.291135600841E+03    0.82646E-03   -0.44724E-03   787   0.727E-02    0.594E-02
RMM:   8    -0.291135680178E+03   -0.79337E-04   -0.27481E-04   759   0.279E-02    0.438E-02
RMM:   9    -0.291135711854E+03   -0.31676E-04   -0.13755E-04   692   0.155E-02    0.344E-02
RMM:  10    -0.291135690430E+03    0.21425E-04   -0.14881E-04   734   0.146E-02    0.834E-03
RMM:  11    -0.291135693014E+03   -0.25844E-05   -0.23523E-05   673   0.619E-03    0.117E-02
RMM:  12    -0.291135690263E+03    0.27516E-05   -0.24811E-06   526   0.254E-03    0.721E-03
RMM:  13    -0.291135689312E+03    0.95080E-06   -0.50898E-06   532   0.265E-03
  10 F= -.29110616E+03 E0= -.29110616E+03  d E =0.207418E-01  mag=     0.0000
 trial-energy change:    0.020742  1 .order   -0.576385   -0.796005   -0.356765
 step:   1.0877(harm=  1.0877)  dis= 0.08085  next Energy=  -291.848180 (dE=-0.721E+00)
 bond charge predicted
       N       E                     dE             d eps       ncg     rms          rms(c)
RMM:   1    -0.291183495186E+03   -0.47805E-01   -0.14537E+01   764   0.642E+00    0.102E+00
RMM:   2    -0.291111728782E+03    0.71766E-01   -0.15943E-01   760   0.685E-01    0.768E-01
RMM:   3    -0.291108792065E+03    0.29367E-02   -0.10313E-02   907   0.140E-01    0.622E-01
RMM:   4    -0.291112603140E+03   -0.38111E-02   -0.18438E-02   777   0.184E-01    0.330E-01
RMM:   5    -0.291112352975E+03    0.25017E-03   -0.31839E-03   773   0.790E-02    0.222E-01
RMM:   6    -0.291111393786E+03    0.95919E-03   -0.68828E-04   764   0.348E-02    0.146E-01
RMM:   7    -0.291111040306E+03    0.35348E-03   -0.21307E-03   787   0.508E-02    0.461E-02
RMM:   8    -0.291111089648E+03   -0.49342E-04   -0.12386E-04   733   0.194E-02    0.341E-02
RMM:   9    -0.291111101743E+03   -0.12095E-04   -0.68197E-05   680   0.114E-02    0.233E-02
RMM:  10    -0.291111093449E+03    0.82946E-05   -0.88339E-05   725   0.110E-02    0.768E-03
RMM:  11    -0.291111093546E+03   -0.97294E-07   -0.78626E-06   593   0.416E-03
  11 F= -.29108117E+03 E0= -.29108117E+03  d E =0.457360E-01  mag=    -0.0000
 curvature:  -0.96 expect dE=-0.909E+00 dE for cont linesearch -0.633E-03
 trial: gam= 0.91837 g(F)=  0.947E+00 g(S)=  0.000E+00 ort = 0.393E-01 (trialstep = 0.546E+00)
 search vector abs. value=  0.299E+01
 bond charge predicted
       N       E                     dE             d eps       ncg     rms          rms(c)
RMM:   1    -0.291260031835E+03   -0.14894E+00   -0.29628E+01   764   0.922E+00    0.148E+00
RMM:   2    -0.291087700843E+03    0.17233E+00   -0.39321E-01   763   0.108E+00    0.108E+00
RMM:   3    -0.291078899252E+03    0.88016E-02   -0.27028E-02   909   0.230E-01    0.898E-01
RMM:   4    -0.291080918839E+03   -0.20196E-02   -0.24194E-02   774   0.215E-01    0.565E-01
RMM:   5    -0.291085934359E+03   -0.50155E-02   -0.16422E-02   770   0.161E-01    0.395E-01
RMM:   6    -0.291082573314E+03    0.33610E-02   -0.20541E-03   770   0.667E-02    0.240E-01
RMM:   7    -0.291081382258E+03    0.11911E-02   -0.51052E-03   776   0.776E-02    0.704E-02
RMM:   8    -0.291081446868E+03   -0.64610E-04   -0.32264E-04   764   0.292E-02    0.498E-02
RMM:   9    -0.291081482196E+03   -0.35328E-04   -0.18903E-04   710   0.186E-02    0.355E-02
RMM:  10    -0.291081456890E+03    0.25306E-04   -0.14402E-04   739   0.145E-02    0.845E-03
RMM:  11    -0.291081460212E+03   -0.33220E-05   -0.28932E-05   696   0.675E-03    0.117E-02
RMM:  12    -0.291081457464E+03    0.27485E-05   -0.27721E-06   538   0.270E-03    0.701E-03
RMM:  13    -0.291081456676E+03    0.78768E-06   -0.50217E-06   551   0.268E-03
  12 F= -.29105110E+03 E0= -.29105110E+03  d E =0.300693E-01  mag=     0.0000
 trial-energy change:    0.030069  1 .order   -0.365279   -0.536430   -0.194127
 step:   0.8551(harm=  0.8551)  dis= 0.07370  next Energy=  -291.501496 (dE=-0.420E+00)
 bond charge predicted
       N       E                     dE             d eps       ncg     rms          rms(c)
RMM:   1    -0.291106424730E+03   -0.24967E-01   -0.94744E+00   764   0.524E+00    0.780E-01
RMM:   2    -0.291059682707E+03    0.46742E-01   -0.10291E-01   763   0.561E-01    0.582E-01
RMM:   3    -0.291058529667E+03    0.11530E-02   -0.81483E-03   924   0.121E-01    0.468E-01
RMM:   4    -0.291060523485E+03   -0.19938E-02   -0.73624E-03   776   0.122E-01    0.232E-01
RMM:   5    -0.291060624317E+03   -0.10083E-03   -0.16848E-03   768   0.595E-02    0.129E-01
RMM:   6    -0.291060278543E+03    0.34577E-03   -0.28601E-04   736   0.237E-02    0.838E-02
RMM:   7    -0.291060169768E+03    0.10877E-03   -0.67382E-04   774   0.299E-02    0.352E-02
RMM:   8    -0.291060187081E+03   -0.17313E-04   -0.45139E-05   705   0.119E-02    0.230E-02
RMM:   9    -0.291060192240E+03   -0.51584E-05   -0.33828E-05   670   0.857E-03    0.131E-02
RMM:  10    -0.291060189012E+03    0.32277E-05   -0.24720E-05   647   0.617E-03    0.405E-03
RMM:  11    -0.291060189323E+03   -0.31090E-06   -0.30441E-06   543   0.286E-03
  13 F= -.29102956E+03 E0= -.29102956E+03  d E =0.516081E-01  mag=     0.0000
 curvature:  -1.30 expect dE=-0.937E+00 dE for cont linesearch -0.693E-04
 trial: gam= 0.74343 g(F)=  0.719E+00 g(S)=  0.000E+00 ort =-0.126E-01 (trialstep = 0.608E+00)
 search vector abs. value=  0.236E+01
 bond charge predicted
       N       E                     dE             d eps       ncg     rms          rms(c)
RMM:   1    -0.291210914179E+03   -0.15073E+00   -0.28318E+01   762   0.908E+00    0.134E+00
RMM:   2    -0.291040468716E+03    0.17045E+00   -0.38007E-01   764   0.110E+00    0.984E-01
RMM:   3    -0.291035068883E+03    0.53998E-02   -0.30742E-02   936   0.240E-01    0.825E-01
RMM:   4    -0.291036339056E+03   -0.12702E-02   -0.16447E-02   776   0.180E-01    0.523E-01
RMM:   5    -0.291040232195E+03   -0.38931E-02   -0.12449E-02   769   0.149E-01    0.308E-01
RMM:   6    -0.291038220520E+03    0.20117E-02   -0.13850E-03   771   0.567E-02    0.188E-01
RMM:   7    -0.291037479723E+03    0.74080E-03   -0.33609E-03   772   0.645E-02    0.622E-02
RMM:   8    -0.291037510347E+03   -0.30625E-04   -0.20876E-04   744   0.258E-02    0.427E-02
RMM:   9    -0.291037538638E+03   -0.28291E-04   -0.17416E-04   724   0.177E-02    0.301E-02
RMM:  10    -0.291037518745E+03    0.19893E-04   -0.76649E-05   712   0.110E-02    0.753E-03
RMM:  11    -0.291037521319E+03   -0.25743E-05   -0.25565E-05   677   0.616E-03    0.897E-03
RMM:  12    -0.291037519702E+03    0.16176E-05   -0.19649E-06   528   0.253E-03    0.520E-03
RMM:  13    -0.291037519261E+03    0.44111E-06   -0.35264E-06   537   0.242E-03
  14 F= -.29100670E+03 E0= -.29100670E+03  d E =0.228594E-01  mag=    -0.0000
 trial-energy change:    0.022859  1 .order   -0.296815   -0.431350   -0.162280
 step:   0.9740(harm=  0.9740)  dis= 0.06870  next Energy=  -291.375314 (dE=-0.346E+00)
 bond charge predicted
       N       E                     dE             d eps       ncg     rms          rms(c)
RMM:   1    -0.291071542795E+03   -0.34023E-01   -0.10247E+01   762   0.549E+00    0.764E-01
RMM:   2    -0.291017791593E+03    0.53751E-01   -0.11915E-01   764   0.625E-01    0.569E-01
RMM:   3    -0.291017082106E+03    0.70949E-03   -0.10733E-02   935   0.139E-01    0.461E-01
RMM:   4    -0.291018577207E+03   -0.14951E-02   -0.57799E-03   774   0.110E-01    0.236E-01
RMM:   5    -0.291018960594E+03   -0.38339E-03   -0.19143E-03   770   0.641E-02    0.116E-01
RMM:   6    -0.291018684878E+03    0.27572E-03   -0.25042E-04   756   0.237E-02    0.743E-02
RMM:   7    -0.291018598850E+03    0.86027E-04   -0.54799E-04   773   0.274E-02    0.346E-02
RMM:   8    -0.291018605180E+03   -0.63295E-05   -0.39557E-05   701   0.112E-02    0.209E-02
RMM:   9    -0.291018612330E+03   -0.71499E-05   -0.38745E-05   674   0.879E-03    0.128E-02
RMM:  10    -0.291018608313E+03    0.40170E-05   -0.12111E-05   618   0.486E-03    0.333E-03
RMM:  11    -0.291018608835E+03   -0.52247E-06   -0.49524E-06   571   0.307E-03
  15 F= -.29098764E+03 E0= -.29098764E+03  d E =0.419204E-01  mag=     0.0000
 curvature:  -1.62 expect dE=-0.763E+00 dE for cont linesearch -0.791E-04
 trial: gam= 0.58472 g(F)=  0.472E+00 g(S)=  0.000E+00 ort =-0.107E-01 (trialstep = 0.681E+00)
 search vector abs. value=  0.126E+01
 bond charge predicted
       N       E                     dE             d eps       ncg     rms          rms(c)
RMM:   1    -0.291083864603E+03   -0.65256E-01   -0.12626E+01   762   0.617E+00    0.750E-01
RMM:   2    -0.291015949592E+03    0.67915E-01   -0.16333E-01   762   0.728E-01    0.594E-01
RMM:   3    -0.291015571658E+03    0.37793E-03   -0.17887E-02   960   0.178E-01    0.478E-01
RMM:   4    -0.291016256297E+03   -0.68464E-03   -0.54420E-03   768   0.102E-01    0.243E-01
RMM:   5    -0.291016975282E+03   -0.71899E-03   -0.22389E-03   765   0.687E-02    0.121E-01
RMM:   6    -0.291016718394E+03    0.25689E-03   -0.36281E-04   762   0.298E-02    0.745E-02
RMM:   7    -0.291016621397E+03    0.96996E-04   -0.52299E-04   764   0.264E-02    0.387E-02
RMM:   8    -0.291016620531E+03    0.86689E-06   -0.52574E-05   703   0.121E-02    0.244E-02
RMM:   9    -0.291016631192E+03   -0.10661E-04   -0.86182E-05   686   0.117E-02    0.162E-02
RMM:  10    -0.291016624373E+03    0.68188E-05   -0.18860E-05   628   0.618E-03    0.394E-03
RMM:  11    -0.291016625301E+03   -0.92746E-06   -0.80239E-06   587   0.377E-03
  16 F= -.29098656E+03 E0= -.29098656E+03  d E =0.107916E-02  mag=     0.0000
 trial-energy change:    0.001079  1 .order   -0.144988   -0.317208    0.027232
 step:   0.6270(harm=  0.6270)  dis= 0.02410  next Energy=  -291.133707 (dE=-0.146E+00)
 bond charge predicted
       N       E                     dE             d eps       ncg     rms          rms(c)
RMM:   1    -0.291017560472E+03   -0.93610E-03   -0.78538E-02   762   0.488E-01    0.590E-02
RMM:   2    -0.291017167613E+03    0.39286E-03   -0.96524E-04   764   0.558E-02    0.454E-02
RMM:   3    -0.291017176209E+03   -0.85959E-05   -0.11349E-04   849   0.141E-02    0.323E-02
RMM:   4    -0.291017196520E+03   -0.20310E-04   -0.39839E-05   676   0.912E-03    0.123E-02
RMM:   5    -0.291017198196E+03   -0.16765E-05   -0.52391E-06   573   0.387E-03    0.765E-03
RMM:   6    -0.291017197253E+03    0.94304E-06   -0.24075E-06   496   0.260E-03
  17 F= -.29098705E+03 E0= -.29098705E+03  d E =0.587831E-03  mag=     0.0000
 curvature:  -0.85 expect dE=-0.266E+00 dE for cont linesearch -0.166E-06
 trial: gam= 0.59201 g(F)=  0.312E+00 g(S)=  0.000E+00 ort = 0.497E-03 (trialstep = 0.670E+00)
 search vector abs. value=  0.756E+00
 bond charge predicted
       N       E                     dE             d eps       ncg     rms          rms(c)
RMM:   1    -0.291044894116E+03   -0.27696E-01   -0.42793E+00   762   0.358E+00    0.396E-01
RMM:   2    -0.291026832584E+03    0.18062E-01   -0.60976E-02   768   0.447E-01    0.328E-01
RMM:   3    -0.291027027245E+03   -0.19466E-03   -0.86657E-03   952   0.121E-01    0.258E-01
RMM:   4    -0.291026944688E+03    0.82557E-04   -0.11412E-03   762   0.484E-02    0.152E-01
RMM:   5    -0.291027327669E+03   -0.38298E-03   -0.12171E-03   760   0.525E-02    0.588E-02
RMM:   6    -0.291027231133E+03    0.96536E-04   -0.17469E-04   727   0.194E-02    0.345E-02
RMM:   7    -0.291027209578E+03    0.21555E-04   -0.18346E-04   760   0.159E-02    0.278E-02
RMM:   8    -0.291027199809E+03    0.97683E-05   -0.22136E-05   653   0.746E-03    0.188E-02
RMM:   9    -0.291027200059E+03   -0.24936E-06   -0.55259E-05   690   0.874E-03    0.988E-03
RMM:  10    -0.291027198722E+03    0.13365E-05   -0.14151E-05   622   0.561E-03    0.486E-03
RMM:  11    -0.291027198536E+03    0.18636E-06   -0.10193E-06   500   0.239E-03
  18 F= -.29099801E+03 E0= -.29099801E+03  d E =-.109514E-01  mag=    -0.0000
 trial-energy change:   -0.010951  1 .order   -0.137744   -0.209314   -0.066175
 step:   0.9799(harm=  0.9799)  dis= 0.02644  next Energy=  -291.140095 (dE=-0.153E+00)
 bond charge predicted
       N       E                     dE             d eps       ncg     rms          rms(c)
RMM:   1    -0.291032034495E+03   -0.48358E-02   -0.91227E-01   762   0.166E+00    0.187E-01
RMM:   2    -0.291028366511E+03    0.36680E-02   -0.12922E-02   768   0.206E-01    0.151E-01
RMM:   3    -0.291028428863E+03   -0.62351E-04   -0.18121E-03   939   0.561E-02    0.116E-01
RMM:   4    -0.291028449407E+03   -0.20544E-04   -0.33978E-04   756   0.260E-02    0.622E-02
RMM:   5    -0.291028528846E+03   -0.79439E-04   -0.20553E-04   760   0.221E-02    0.302E-02
RMM:   6    -0.291028507560E+03    0.21286E-04   -0.37382E-05   674   0.901E-03    0.174E-02
RMM:   7    -0.291028502875E+03    0.46855E-05   -0.76743E-05   697   0.996E-03    0.150E-02
RMM:   8    -0.291028499719E+03    0.31557E-05   -0.63254E-06   560   0.446E-03    0.951E-03
RMM:   9    -0.291028499505E+03    0.21389E-06   -0.13074E-05   608   0.453E-03    0.411E-03
RMM:  10    -0.291028499405E+03    0.99679E-07   -0.22332E-06   504   0.259E-03
  19 F= -.29099975E+03 E0= -.29099975E+03  d E =-.126984E-01  mag=    -0.0000
 curvature:  -1.19 expect dE=-0.302E+00 dE for cont linesearch -0.358E-03
 trial: gam= 0.82491 g(F)=  0.255E+00 g(S)=  0.000E+00 ort =-0.151E-01 (trialstep = 0.732E+00)
 search vector abs. value=  0.744E+00
 bond charge predicted
       N       E                     dE             d eps       ncg     rms          rms(c)
RMM:   1    -0.291055520911E+03   -0.27021E-01   -0.37521E+00   765   0.344E+00    0.386E-01
RMM:   2    -0.291040255928E+03    0.15265E-01   -0.56622E-02   774   0.440E-01    0.314E-01
RMM:   3    -0.291040704901E+03   -0.44897E-03   -0.87291E-03   960   0.124E-01    0.255E-01
RMM:   4    -0.291040725589E+03   -0.20688E-04   -0.12254E-03   761   0.524E-02    0.158E-01
RMM:   5    -0.291041163714E+03   -0.43813E-03   -0.11224E-03   762   0.533E-02    0.726E-02
RMM:   6    -0.291041005460E+03    0.15825E-03   -0.40869E-04   754   0.279E-02    0.248E-02
RMM:   7    -0.291041005225E+03    0.23435E-06   -0.16287E-04   781   0.155E-02    0.254E-02
RMM:   8    -0.291040994614E+03    0.10611E-04   -0.17763E-05   651   0.635E-03    0.161E-02
RMM:   9    -0.291040993532E+03    0.10823E-05   -0.43242E-05   698   0.765E-03    0.942E-03
RMM:  10    -0.291040992044E+03    0.14884E-05   -0.81623E-06   598   0.469E-03    0.275E-03
RMM:  11    -0.291040992342E+03   -0.29798E-06   -0.18810E-06   518   0.254E-03
  20 F= -.29101247E+03 E0= -.29101247E+03  d E =-.127194E-01  mag=    -0.0000
 trial-energy change:   -0.012719  1 .order   -0.116425   -0.177379   -0.055470
 step:   1.0651(harm=  1.0651)  dis= 0.02914  next Energy=  -291.128797 (dE=-0.129E+00)
 bond charge predicted
       N       E                     dE             d eps       ncg     rms          rms(c)
RMM:   1    -0.291046025018E+03   -0.50330E-02   -0.77441E-01   766   0.157E+00    0.178E-01
RMM:   2    -0.291043002281E+03    0.30227E-02   -0.11618E-02   774   0.200E-01    0.141E-01
RMM:   3    -0.291043115474E+03   -0.11319E-03   -0.18087E-03   950   0.564E-02    0.114E-01
RMM:   4    -0.291043171742E+03   -0.56268E-04   -0.43567E-04   764   0.302E-02    0.637E-02
RMM:   5    -0.291043242610E+03   -0.70869E-04   -0.15353E-04   760   0.204E-02    0.348E-02
RMM:   6    -0.291043210494E+03    0.32117E-04   -0.75393E-05   692   0.120E-02    0.143E-02
RMM:   7    -0.291043210469E+03    0.24495E-07   -0.67297E-05   731   0.958E-03    0.140E-02
RMM:   8    -0.291043207049E+03    0.34198E-05   -0.49583E-06   555   0.392E-03    0.853E-03
RMM:   9    -0.291043206659E+03    0.39027E-06   -0.12299E-05   616   0.434E-03    0.381E-03
RMM:  10    -0.291043206534E+03    0.12527E-06   -0.14998E-06   503   0.235E-03
  21 F= -.29101480E+03 E0= -.29101480E+03  d E =-.150515E-01  mag=     0.0000
 curvature:  -1.64 expect dE=-0.502E+00 dE for cont linesearch -0.415E-04
 trial: gam= 1.06124 g(F)=  0.307E+00 g(S)=  0.000E+00 ort =-0.435E-02 (trialstep = 0.523E+00)
 search vector abs. value=  0.114E+01
 bond charge predicted
       N       E                     dE             d eps       ncg     rms          rms(c)
RMM:   1    -0.291071897340E+03   -0.28691E-01   -0.33957E+00   764   0.325E+00    0.367E-01
RMM:   2    -0.291055445261E+03    0.16452E-01   -0.50348E-02   784   0.389E-01    0.269E-01
RMM:   3    -0.291055811288E+03   -0.36603E-03   -0.70876E-03   977   0.114E-01    0.216E-01
RMM:   4    -0.291055850084E+03   -0.38796E-04   -0.10363E-03   760   0.425E-02    0.139E-01
RMM:   5    -0.291056306724E+03   -0.45664E-03   -0.10375E-03   783   0.457E-02    0.749E-02
RMM:   6    -0.291056142217E+03    0.16451E-03   -0.26377E-04   723   0.219E-02    0.303E-02
RMM:   7    -0.291056129155E+03    0.13062E-04   -0.27453E-04   771   0.184E-02    0.236E-02
RMM:   8    -0.291056121259E+03    0.78959E-05   -0.13439E-05   631   0.667E-03    0.168E-02
RMM:   9    -0.291056120274E+03    0.98550E-06   -0.54875E-05   663   0.913E-03    0.937E-03
RMM:  10    -0.291056118011E+03    0.22628E-05   -0.56323E-06   572   0.422E-03    0.350E-03
RMM:  11    -0.291056117952E+03    0.58639E-07   -0.24738E-06   525   0.252E-03
  22 F= -.29102758E+03 E0= -.29102758E+03  d E =-.127777E-01  mag=    -0.0000
 trial-energy change:   -0.012778  1 .order   -0.121764   -0.158260   -0.085269
 step:   1.1345(harm=  1.1345)  dis= 0.02782  next Energy=  -291.186374 (dE=-0.172E+00)
 bond charge predicted
       N       E                     dE             d eps       ncg     rms          rms(c)
RMM:   1    -0.291084579509E+03   -0.28461E-01   -0.46310E+00   764   0.377E+00    0.427E-01
RMM:   2    -0.291062662833E+03    0.21917E-01   -0.69462E-02   784   0.454E-01    0.316E-01
RMM:   3    -0.291063150051E+03   -0.48722E-03   -0.99881E-03   980   0.134E-01    0.256E-01
RMM:   4    -0.291063098216E+03    0.51834E-04   -0.11477E-03   760   0.450E-02    0.175E-01
RMM:   5    -0.291063843710E+03   -0.74549E-03   -0.20054E-03   786   0.601E-02    0.978E-02
RMM:   6    -0.291063595851E+03    0.24786E-03   -0.30124E-04   758   0.254E-02    0.504E-02
RMM:   7    -0.291063543514E+03    0.52337E-04   -0.60906E-04   771   0.267E-02    0.276E-02
RMM:   8    -0.291063533818E+03    0.96955E-05   -0.32794E-05   709   0.955E-03    0.210E-02
RMM:   9    -0.291063530043E+03    0.37758E-05   -0.67925E-05   666   0.984E-03    0.100E-02
RMM:  10    -0.291063527715E+03    0.23274E-05   -0.72998E-06   602   0.452E-03    0.490E-03
RMM:  11    -0.291063527277E+03    0.43845E-06   -0.36602E-06   538   0.289E-03
  23 F= -.29103486E+03 E0= -.29103486E+03  d E =-.200522E-01  mag=    -0.0000
 curvature:  -2.13 expect dE=-0.590E+00 dE for cont linesearch -0.705E-03
 trial: gam= 0.95712 g(F)=  0.277E+00 g(S)=  0.000E+00 ort =-0.194E-01 (trialstep = 0.573E+00)
 search vector abs. value=  0.128E+01
 bond charge predicted
       N       E                     dE             d eps       ncg     rms          rms(c)
RMM:   1    -0.291099523413E+03   -0.35996E-01   -0.47981E+00   764   0.375E+00    0.432E-01
RMM:   2    -0.291072874282E+03    0.26649E-01   -0.67525E-02   783   0.451E-01    0.307E-01
RMM:   3    -0.291073181379E+03   -0.30710E-03   -0.89098E-03   975   0.126E-01    0.249E-01
RMM:   4    -0.291073179020E+03    0.23585E-05   -0.91058E-04   772   0.411E-02    0.177E-01
RMM:   5    -0.291073803325E+03   -0.62430E-03   -0.15510E-03   779   0.514E-02    0.926E-02
RMM:   6    -0.291073722685E+03    0.80641E-04   -0.23138E-04   763   0.249E-02    0.524E-02
RMM:   7    -0.291073642428E+03    0.80257E-04   -0.48365E-04   748   0.243E-02    0.202E-02
RMM:   8    -0.291073639634E+03    0.27939E-05   -0.28295E-05   700   0.788E-03    0.170E-02
RMM:   9    -0.291073641253E+03   -0.16189E-05   -0.62199E-05   666   0.959E-03    0.124E-02
RMM:  10    -0.291073637141E+03    0.41116E-05   -0.80594E-06   602   0.442E-03    0.504E-03
RMM:  11    -0.291073636839E+03    0.30202E-06   -0.52555E-06   558   0.309E-03
  24 F= -.29104438E+03 E0= -.29104438E+03  d E =-.951998E-02  mag=    -0.0000
 trial-energy change:   -0.009520  1 .order   -0.078722   -0.148039   -0.009405
 step:   0.6114(harm=  0.6114)  dis= 0.01637  next Energy=  -291.113897 (dE=-0.790E-01)
 bond charge predicted
       N       E                     dE             d eps       ncg     rms          rms(c)
RMM:   1    -0.291074183063E+03   -0.54592E-03   -0.22033E-02   764   0.255E-01    0.281E-02
RMM:   2    -0.291074061336E+03    0.12173E-03   -0.29320E-04   770   0.303E-02    0.205E-02
RMM:   3    -0.291074065195E+03   -0.38585E-05   -0.41350E-05   768   0.857E-03    0.152E-02
RMM:   4    -0.291074068498E+03   -0.33032E-05   -0.79143E-06   585   0.404E-03    0.785E-03
RMM:   5    -0.291074070645E+03   -0.21469E-05   -0.22940E-06   524   0.274E-03    0.413E-03
RMM:   6    -0.291074070131E+03    0.51390E-06   -0.16811E-06   492   0.203E-03
  25 F= -.29104477E+03 E0= -.29104477E+03  d E =-.991047E-02  mag=     0.0000
 curvature:  -1.51 expect dE=-0.239E+00 dE for cont linesearch -0.124E-06
 trial: gam= 0.45014 g(F)=  0.158E+00 g(S)=  0.000E+00 ort = 0.324E-03 (trialstep = 0.580E+00)
 search vector abs. value=  0.418E+00
 bond charge predicted
       N       E                     dE             d eps       ncg     rms          rms(c)
RMM:   1    -0.291096382607E+03   -0.22312E-01   -0.17834E+00   763   0.223E+00    0.268E-01
RMM:   2    -0.291086179800E+03    0.10203E-01   -0.21572E-02   774   0.279E-01    0.186E-01
RMM:   3    -0.291086212214E+03   -0.32414E-04   -0.24264E-03   937   0.707E-02    0.147E-01
RMM:   4    -0.291086323801E+03   -0.11159E-03   -0.47666E-04   785   0.328E-02    0.977E-02
RMM:   5    -0.291086437060E+03   -0.11326E-03   -0.25379E-04   756   0.252E-02    0.329E-02
RMM:   6    -0.291086454678E+03   -0.17618E-04   -0.36214E-05   690   0.105E-02    0.152E-02
RMM:   7    -0.291086449160E+03    0.55179E-05   -0.18631E-05   688   0.560E-03    0.948E-03
RMM:   8    -0.291086449106E+03    0.54757E-07   -0.67010E-06   608   0.390E-03
  26 F= -.29105650E+03 E0= -.29105650E+03  d E =-.117329E-01  mag=     0.0000
 trial-energy change:   -0.011733  1 .order   -0.074301   -0.091830   -0.056773
 step:   1.5202(harm=  1.5202)  dis= 0.03068  next Energy=  -291.165039 (dE=-0.120E+00)
 bond charge predicted
       N       E                     dE             d eps       ncg     rms          rms(c)
RMM:   1    -0.291125530641E+03   -0.39081E-01   -0.46673E+00   762   0.357E+00    0.459E-01
RMM:   2    -0.291099344945E+03    0.26186E-01   -0.58820E-02   776   0.453E-01    0.312E-01
RMM:   3    -0.291099101263E+03    0.24368E-03   -0.66525E-03   954   0.115E-01    0.251E-01
RMM:   4    -0.291099287538E+03   -0.18627E-03   -0.12365E-03   784   0.505E-02    0.182E-01
RMM:   5    -0.291099666766E+03   -0.37923E-03   -0.83940E-04   762   0.428E-02    0.792E-02
RMM:   6    -0.291099718456E+03   -0.51690E-04   -0.17142E-04   756   0.225E-02    0.306E-02
RMM:   7    -0.291099690161E+03    0.28295E-04   -0.80980E-05   724   0.113E-02    0.170E-02
RMM:   8    -0.291099687444E+03    0.27176E-05   -0.23120E-05   712   0.688E-03    0.101E-02
RMM:   9    -0.291099688560E+03   -0.11167E-05   -0.83530E-06   604   0.460E-03    0.353E-03
RMM:  10    -0.291099688718E+03   -0.15724E-06   -0.98370E-07   500   0.231E-03
  27 F= -.29106876E+03 E0= -.29106876E+03  d E =-.239961E-01  mag=    -0.0000
 curvature:  -2.01 expect dE=-0.537E+00 dE for cont linesearch -0.645E-04
 trial: gam= 1.72968 g(F)=  0.268E+00 g(S)=  0.000E+00 ort =-0.367E-02 (trialstep = 0.213E+00)
 search vector abs. value=  0.151E+01
 bond charge predicted
       N       E                     dE             d eps       ncg     rms          rms(c)
RMM:   1    -0.291110318738E+03   -0.10630E-01   -0.85143E-01   762   0.152E+00    0.181E-01
RMM:   2    -0.291105714881E+03    0.46039E-02   -0.10300E-02   774   0.202E-01    0.127E-01
RMM:   3    -0.291105753168E+03   -0.38287E-04   -0.11181E-03   933   0.484E-02    0.100E-01
RMM:   4    -0.291105828422E+03   -0.75254E-04   -0.23476E-04   787   0.232E-02    0.656E-02
RMM:   5    -0.291105896847E+03   -0.68425E-04   -0.11006E-04   756   0.178E-02    0.166E-02
RMM:   6    -0.291105897246E+03   -0.39941E-06   -0.13040E-05   672   0.623E-03    0.959E-03
RMM:   7    -0.291105895547E+03    0.16995E-05   -0.52990E-06   608   0.328E-03    0.611E-03
RMM:   8    -0.291105895678E+03   -0.13198E-06   -0.26988E-06   536   0.271E-03
  28 F= -.29107477E+03 E0= -.29107477E+03  d E =-.600796E-02  mag=    -0.0000
 trial-energy change:   -0.006008  1 .order   -0.046991   -0.055743   -0.038239
 step:   0.6792(harm=  0.6792)  dis= 0.02749  next Energy=  -291.157520 (dE=-0.888E-01)
 bond charge predicted
       N       E                     dE             d eps       ncg     rms          rms(c)
RMM:   1    -0.291135708282E+03   -0.29813E-01   -0.40599E+00   762   0.330E+00    0.430E-01
RMM:   2    -0.291113869083E+03    0.21839E-01   -0.52269E-02   774   0.445E-01    0.292E-01
RMM:   3    -0.291113618882E+03    0.25020E-03   -0.54954E-03   938   0.107E-01    0.237E-01
RMM:   4    -0.291113813263E+03   -0.19438E-03   -0.10852E-03   790   0.487E-02    0.176E-01
RMM:   5    -0.291114234433E+03   -0.42117E-03   -0.76107E-04   756   0.423E-02    0.710E-02
RMM:   6    -0.291114223383E+03    0.11050E-04   -0.14244E-04   767   0.204E-02    0.274E-02
RMM:   7    -0.291114204598E+03    0.18785E-04   -0.55047E-05   720   0.966E-03    0.155E-02
RMM:   8    -0.291114201661E+03    0.29368E-05   -0.14096E-05   683   0.580E-03    0.893E-03
RMM:   9    -0.291114202316E+03   -0.65459E-06   -0.84253E-06   637   0.450E-03
  29 F= -.29108269E+03 E0= -.29108269E+03  d E =-.139304E-01  mag=     0.0000
 curvature:  -1.96 expect dE=-0.364E+00 dE for cont linesearch -0.124E-05
 trial: gam= 0.59281 g(F)=  0.186E+00 g(S)=  0.000E+00 ort = 0.977E-03 (trialstep = 0.306E+00)
 search vector abs. value=  0.716E+00
 bond charge predicted
       N       E                     dE             d eps       ncg     rms          rms(c)
RMM:   1    -0.291120599176E+03   -0.63975E-02   -0.67133E-01   761   0.135E+00    0.152E-01
RMM:   2    -0.291117065324E+03    0.35339E-02   -0.80781E-03   775   0.184E-01    0.111E-01
RMM:   3    -0.291117095023E+03   -0.29700E-04   -0.84497E-04   936   0.435E-02    0.883E-02
RMM:   4    -0.291117157898E+03   -0.62875E-04   -0.19211E-04   785   0.214E-02    0.565E-02
RMM:   5    -0.291117203599E+03   -0.45700E-04   -0.10078E-04   756   0.170E-02    0.137E-02
RMM:   6    -0.291117200882E+03    0.27172E-05   -0.10597E-05   654   0.555E-03    0.880E-03
RMM:   7    -0.291117199670E+03    0.12116E-05   -0.34389E-06   548   0.297E-03    0.541E-03
RMM:   8    -0.291117199662E+03    0.78326E-08   -0.25280E-06   528   0.270E-03
  30 F= -.29108578E+03 E0= -.29108578E+03  d E =-.308312E-02  mag=    -0.0000
 ZBRENT: can't locate minimum, use default step
 trial-energy change:   -0.003083  1 .order   -0.051380   -0.057172   -0.045588
 step:   1.2260(harm=  1.5126)  dis= 0.02828  next Energy=  -291.223776 (dE=-0.141E+00)
 bond charge predicted
       N       E                     dE             d eps       ncg     rms          rms(c)
RMM:   1    -0.291149158930E+03   -0.31959E-01   -0.60401E+00   762   0.402E+00    0.517E-01
RMM:   2    -0.291117060373E+03    0.32099E-01   -0.79886E-02   776   0.560E-01    0.368E-01
RMM:   3    -0.291116379823E+03    0.68055E-03   -0.78083E-03   938   0.134E-01    0.296E-01
RMM:   4    -0.291116541406E+03   -0.16158E-03   -0.15725E-03   797   0.579E-02    0.226E-01
RMM:   5    -0.291117326582E+03   -0.78518E-03   -0.18307E-03   756   0.642E-02    0.105E-01
RMM:   6    -0.291117183654E+03    0.14293E-03   -0.27159E-04   775   0.281E-02    0.442E-02
RMM:   7    -0.291117147682E+03    0.35972E-04   -0.94226E-05   735   0.131E-02    0.217E-02
RMM:   8    -0.291117141076E+03    0.66053E-05   -0.27423E-05   714   0.812E-03    0.116E-02
RMM:   9    -0.291117140714E+03    0.36213E-06   -0.14871E-05   676   0.573E-03    0.353E-03
RMM:  10    -0.291117140988E+03   -0.27384E-06   -0.17746E-06   512   0.272E-03
  31 F= -.29108597E+03 E0= -.29108597E+03  d E =-.327967E-02  mag=    -0.0000
 curvature:  -2.74 expect dE=-0.488E+00 dE for cont linesearch -0.160E-02
 trial: gam= 0.72092 g(F)=  0.178E+00 g(S)=  0.000E+00 ort = 0.205E-01 (trialstep = 0.490E+00)
 search vector abs. value=  0.580E+00
 bond charge predicted
       N       E                     dE             d eps       ncg     rms          rms(c)
RMM:   1    -0.291126171433E+03   -0.90307E-02   -0.10533E+00   764   0.169E+00    0.190E-01
RMM:   2    -0.291120602381E+03    0.55691E-02   -0.11980E-02   770   0.207E-01    0.146E-01
RMM:   3    -0.291120583684E+03    0.18696E-04   -0.13841E-03   924   0.550E-02    0.105E-01
RMM:   4    -0.291120605960E+03   -0.22276E-04   -0.28883E-04   758   0.259E-02    0.522E-02
RMM:   5    -0.291120651752E+03   -0.45791E-04   -0.15909E-04   760   0.187E-02    0.232E-02
RMM:   6    -0.291120646022E+03    0.57297E-05   -0.16380E-05   664   0.705E-03    0.136E-02
RMM:   7    -0.291120641825E+03    0.41968E-05   -0.23885E-05   675   0.582E-03    0.852E-03
RMM:   8    -0.291120641972E+03   -0.14673E-06   -0.43033E-06   558   0.322E-03
  32 F= -.29108920E+03 E0= -.29108920E+03  d E =-.322378E-02  mag=    -0.0000
 trial-energy change:   -0.003224  1 .order   -0.062880   -0.094570   -0.031189
 step:   0.7317(harm=  0.7317)  dis= 0.00937  next Energy=  -291.156526 (dE=-0.706E-01)
 bond charge predicted
       N       E                     dE             d eps       ncg     rms          rms(c)
RMM:   1    -0.291121702977E+03   -0.10612E-02   -0.25475E-01   764   0.832E-01    0.924E-02
RMM:   2    -0.291120357167E+03    0.13458E-02   -0.28820E-03   770   0.102E-01    0.711E-02
RMM:   3    -0.291120360321E+03   -0.31540E-05   -0.33133E-04   850   0.274E-02    0.463E-02
RMM:   4    -0.291120377780E+03   -0.17459E-04   -0.61818E-05   747   0.130E-02    0.158E-02
RMM:   5    -0.291120386912E+03   -0.91325E-05   -0.14458E-05   614   0.663E-03    0.656E-03
RMM:   6    -0.291120386224E+03    0.68850E-06   -0.34727E-06   547   0.308E-03
  33 F= -.29108882E+03 E0= -.29108882E+03  d E =-.284547E-02  mag=     0.0000
 curvature:  -1.10 expect dE=-0.140E+00 dE for cont linesearch -0.860E-08
 trial: gam= 0.74863 g(F)=  0.127E+00 g(S)=  0.000E+00 ort =-0.673E-04 (trialstep = 0.539E+00)
 search vector abs. value=  0.452E+00
 bond charge predicted
       N       E                     dE             d eps       ncg     rms          rms(c)
RMM:   1    -0.291129925529E+03   -0.95386E-02   -0.92020E-01   764   0.158E+00    0.165E-01
RMM:   2    -0.291124184996E+03    0.57405E-02   -0.95413E-03   770   0.184E-01    0.133E-01
RMM:   3    -0.291124263015E+03   -0.78019E-04   -0.99922E-04   894   0.461E-02    0.879E-02
RMM:   4    -0.291124339544E+03   -0.76530E-04   -0.10384E-04   757   0.180E-02    0.426E-02
RMM:   5    -0.291124402860E+03   -0.63315E-04   -0.54583E-05   738   0.130E-02    0.124E-02
RMM:   6    -0.291124402238E+03    0.62185E-06   -0.72737E-06   609   0.439E-03
  34 F= -.29109281E+03 E0= -.29109281E+03  d E =-.399447E-02  mag=     0.0000
 trial-energy change:   -0.003994  1 .order   -0.052723   -0.068512   -0.036934
 step:   1.1686(harm=  1.1686)  dis= 0.01806  next Energy=  -291.163140 (dE=-0.743E-01)
 bond charge predicted
       N       E                     dE             d eps       ncg     rms          rms(c)
RMM:   1    -0.291134949925E+03   -0.10547E-01   -0.12596E+00   766   0.184E+00    0.191E-01
RMM:   2    -0.291127118216E+03    0.78317E-02   -0.13134E-02   772   0.215E-01    0.156E-01
RMM:   3    -0.291127201401E+03   -0.83185E-04   -0.13509E-03   905   0.531E-02    0.108E-01
RMM:   4    -0.291127331018E+03   -0.12962E-03   -0.15013E-04   756   0.212E-02    0.510E-02
RMM:   5    -0.291127415927E+03   -0.84908E-04   -0.73824E-05   757   0.154E-02    0.147E-02
RMM:   6    -0.291127413595E+03    0.23315E-05   -0.89995E-06   616   0.494E-03    0.103E-02
RMM:   7    -0.291127412422E+03    0.11733E-05   -0.55249E-06   598   0.347E-03    0.578E-03
RMM:   8    -0.291127412473E+03   -0.51636E-07   -0.16012E-06   514   0.234E-03
  35 F= -.29109581E+03 E0= -.29109581E+03  d E =-.699581E-02  mag=     0.0000
 curvature:  -2.08 expect dE=-0.288E+00 dE for cont linesearch -0.246E-05
 trial: gam= 0.92827 g(F)=  0.139E+00 g(S)=  0.000E+00 ort =-0.732E-03 (trialstep = 0.570E+00)
 search vector abs. value=  0.527E+00
 bond charge predicted
       N       E                     dE             d eps       ncg     rms          rms(c)
RMM:   1    -0.291140128506E+03   -0.12716E-01   -0.16406E+00   766   0.211E+00    0.245E-01
RMM:   2    -0.291130630745E+03    0.94978E-02   -0.17128E-02   774   0.232E-01    0.196E-01
RMM:   3    -0.291130694868E+03   -0.64123E-04   -0.21264E-03   870   0.644E-02    0.123E-01
RMM:   4    -0.291130749197E+03   -0.54329E-04   -0.21719E-04   764   0.250E-02    0.691E-02
RMM:   5    -0.291130878437E+03   -0.12924E-03   -0.18867E-04   756   0.214E-02    0.223E-02
RMM:   6    -0.291130874995E+03    0.34417E-05   -0.18340E-05   680   0.663E-03    0.155E-02
RMM:   7    -0.291130872951E+03    0.20437E-05   -0.12710E-05   669   0.470E-03    0.116E-02
RMM:   8    -0.291130872247E+03    0.70443E-06   -0.83338E-06   614   0.400E-03
  36 F= -.29109946E+03 E0= -.29109946E+03  d E =-.364604E-02  mag=    -0.0000
 trial-energy change:   -0.003646  1 .order   -0.051522   -0.078792   -0.024252
 step:   0.8235(harm=  0.8235)  dis= 0.01662  next Energy=  -291.152729 (dE=-0.569E-01)
 bond charge predicted
       N       E                     dE             d eps       ncg     rms          rms(c)
RMM:   1    -0.291132410362E+03   -0.15374E-02   -0.32462E-01   766   0.940E-01    0.112E-01
RMM:   2    -0.291130510637E+03    0.18997E-02   -0.33834E-03   774   0.104E-01    0.852E-02
RMM:   3    -0.291130539383E+03   -0.28746E-04   -0.42379E-04   828   0.290E-02    0.498E-02
RMM:   4    -0.291130564192E+03   -0.24809E-04   -0.61433E-05   733   0.133E-02    0.282E-02
RMM:   5    -0.291130586771E+03   -0.22579E-04   -0.30431E-05   678   0.880E-03    0.122E-02
RMM:   6    -0.291130588972E+03   -0.22007E-05   -0.51364E-06   566   0.394E-03    0.680E-03
RMM:   7    -0.291130588458E+03    0.51345E-06   -0.29741E-06   543   0.252E-03
  37 F= -.29109926E+03 E0= -.29109926E+03  d E =-.344551E-02  mag=    -0.0000
 curvature:  -1.57 expect dE=-0.222E+00 dE for cont linesearch -0.155E-09
 trial: gam= 0.88959 g(F)=  0.141E+00 g(S)=  0.000E+00 ort = 0.722E-05 (trialstep = 0.586E+00)
 search vector abs. value=  0.558E+00
 bond charge predicted
       N       E                     dE             d eps       ncg     rms          rms(c)
RMM:   1    -0.291144622189E+03   -0.14033E-01   -0.20292E+00   766   0.230E+00    0.269E-01
RMM:   2    -0.291131748152E+03    0.12874E-01   -0.19682E-02   770   0.250E-01    0.223E-01
RMM:   3    -0.291131802584E+03   -0.54433E-04   -0.19617E-03   879   0.605E-02    0.153E-01
RMM:   4    -0.291132170184E+03   -0.36760E-03   -0.34478E-04   762   0.305E-02    0.726E-02
RMM:   5    -0.291132296899E+03   -0.12672E-03   -0.15252E-04   764   0.202E-02    0.394E-02
RMM:   6    -0.291132276171E+03    0.20728E-04   -0.36658E-05   690   0.820E-03    0.188E-02
RMM:   7    -0.291132274568E+03    0.16025E-05   -0.11331E-05   646   0.482E-03    0.108E-02
RMM:   8    -0.291132275310E+03   -0.74205E-06   -0.75886E-06   622   0.456E-03
  38 F= -.29110068E+03 E0= -.29110068E+03  d E =-.142127E-02  mag=    -0.0000
 trial-energy change:   -0.001421  1 .order   -0.057449   -0.082824   -0.032074
 step:   0.9561(harm=  0.9561)  dis= 0.02255  next Energy=  -291.166843 (dE=-0.676E-01)
 bond charge predicted
       N       E                     dE             d eps       ncg     rms          rms(c)
RMM:   1    -0.291136738216E+03   -0.44636E-02   -0.81054E-01   766   0.145E+00    0.170E-01
RMM:   2    -0.291131596035E+03    0.51422E-02   -0.77613E-03   770   0.157E-01    0.136E-01
RMM:   3    -0.291131719326E+03   -0.12329E-03   -0.82574E-04   859   0.399E-02    0.798E-02
RMM:   4    -0.291131795320E+03   -0.75994E-04   -0.88932E-05   759   0.162E-02    0.372E-02
RMM:   5    -0.291131848651E+03   -0.53331E-04   -0.39770E-05   693   0.103E-02    0.114E-02
RMM:   6    -0.291131848572E+03    0.78850E-07   -0.48834E-06   559   0.364E-03
  39 F= -.29110008E+03 E0= -.29110008E+03  d E =-.816789E-03  mag=    -0.0000
 curvature:  -1.89 expect dE=-0.149E+00 dE for cont linesearch -0.918E-08
 trial: gam= 0.44162 g(F)=  0.789E-01 g(S)=  0.000E+00 ort =-0.521E-04 (trialstep = 0.660E+00)
 search vector abs. value=  0.188E+00
 bond charge predicted
       N       E                     dE             d eps       ncg     rms          rms(c)
RMM:   1    -0.291140365771E+03   -0.85171E-02   -0.14142E+00   766   0.190E+00    0.220E-01
RMM:   2    -0.291131399286E+03    0.89665E-02   -0.13797E-02   771   0.202E-01    0.177E-01
RMM:   3    -0.291131489178E+03   -0.89892E-04   -0.14561E-03   910   0.495E-02    0.123E-01
RMM:   4    -0.291131750017E+03   -0.26084E-03   -0.30692E-04   765   0.267E-02    0.491E-02
RMM:   5    -0.291131805110E+03   -0.55093E-04   -0.99321E-05   751   0.159E-02    0.265E-02
RMM:   6    -0.291131799524E+03    0.55858E-05   -0.15864E-05   670   0.564E-03    0.146E-02
RMM:   7    -0.291131799038E+03    0.48634E-06   -0.54409E-06   575   0.348E-03
  40 F= -.29109989E+03 E0= -.29109989E+03  d E =0.185994E-03  mag=    -0.0000
 trial-energy change:    0.000186  1 .order   -0.035510   -0.052032   -0.018989
 step:   1.0391(harm=  1.0391)  dis= 0.01593  next Energy=  -291.141043 (dE=-0.410E-01)
 bond charge predicted
       N       E                     dE             d eps       ncg     rms          rms(c)
RMM:   1    -0.291133868677E+03   -0.20692E-02   -0.46778E-01   766   0.109E+00    0.127E-01
RMM:   2    -0.291130856195E+03    0.30125E-02   -0.45354E-03   772   0.116E-01    0.100E-01
RMM:   3    -0.291130932235E+03   -0.76039E-04   -0.45487E-04   858   0.286E-02    0.583E-02
RMM:   4    -0.291131013828E+03   -0.81593E-04   -0.68522E-05   752   0.135E-02    0.178E-02
RMM:   5    -0.291131027906E+03   -0.14078E-04   -0.18048E-05   682   0.703E-03    0.117E-02
RMM:   6    -0.291131026448E+03    0.14578E-05   -0.29561E-06   529   0.293E-03    0.737E-03
RMM:   7    -0.291131026681E+03   -0.23261E-06   -0.25150E-06   524   0.253E-03
  41 F= -.29109906E+03 E0= -.29109906E+03  d E =0.102000E-02  mag=     0.0000
 curvature:  -1.24 expect dE=-0.132E+00 dE for cont linesearch -0.362E-05
 trial: gam= 1.27267 g(F)=  0.107E+00 g(S)=  0.000E+00 ort = 0.742E-03 (trialstep = 0.335E+00)
 search vector abs. value=  0.413E+00
 bond charge predicted
       N       E                     dE             d eps       ncg     rms          rms(c)
RMM:   1    -0.291137152658E+03   -0.61262E-02   -0.10483E+00   766   0.164E+00    0.186E-01
RMM:   2    -0.291130245951E+03    0.69067E-02   -0.10229E-02   769   0.178E-01    0.148E-01
RMM:   3    -0.291130348481E+03   -0.10253E-03   -0.98752E-04   891   0.413E-02    0.999E-02
RMM:   4    -0.291130559093E+03   -0.21061E-03   -0.23877E-04   774   0.238E-02    0.359E-02
RMM:   5    -0.291130577471E+03   -0.18377E-04   -0.60511E-05   708   0.123E-02    0.185E-02
RMM:   6    -0.291130574774E+03    0.26966E-05   -0.95668E-06   641   0.425E-03    0.112E-02
RMM:   7    -0.291130574965E+03   -0.19036E-06   -0.28560E-06   538   0.279E-03
  42 F= -.29109866E+03 E0= -.29109866E+03  d E =0.392888E-03  mag=     0.0000
 trial-energy change:    0.000393  1 .order   -0.029490   -0.036046   -0.022934
 step:   0.9200(harm=  0.9200)  dis= 0.02230  next Energy=  -291.148603 (dE=-0.495E-01)
 bond charge predicted
       N       E                     dE             d eps       ncg     rms          rms(c)
RMM:   1    -0.291148222908E+03   -0.17648E-01   -0.32132E+00   766   0.288E+00    0.330E-01
RMM:   2    -0.291126783792E+03    0.21439E-01   -0.32058E-02   770   0.315E-01    0.265E-01
RMM:   3    -0.291126747750E+03    0.36043E-04   -0.30898E-03   944   0.727E-02    0.205E-01
RMM:   4    -0.291127478132E+03   -0.73038E-03   -0.10070E-03   777   0.464E-02    0.960E-02
RMM:   5    -0.291127564451E+03   -0.86319E-04   -0.30301E-04   758   0.272E-02    0.481E-02
RMM:   6    -0.291127538512E+03    0.25939E-04   -0.62080E-05   712   0.105E-02    0.237E-02
RMM:   7    -0.291127536806E+03    0.17062E-05   -0.13784E-05   655   0.564E-03    0.146E-02
RMM:   8    -0.291127537741E+03   -0.93499E-06   -0.79716E-06   643   0.450E-03
  43 F= -.29109570E+03 E0= -.29109570E+03  d E =0.335496E-02  mag=    -0.0000
 curvature:  -1.76 expect dE=-0.149E+00 dE for cont linesearch -0.441E-04
 trial: gam= 0.76493 g(F)=  0.844E-01 g(S)=  0.000E+00 ort =-0.321E-02 (trialstep = 0.452E+00)
 search vector abs. value=  0.321E+00
 bond charge predicted
       N       E                     dE             d eps       ncg     rms          rms(c)
RMM:   1    -0.291136288116E+03   -0.87513E-02   -0.18054E+00   766   0.218E+00    0.241E-01
RMM:   2    -0.291124108107E+03    0.12180E-01   -0.17818E-02   768   0.235E-01    0.192E-01
RMM:   3    -0.291124196642E+03   -0.88535E-04   -0.17173E-03   931   0.546E-02    0.139E-01
RMM:   4    -0.291124548115E+03   -0.35147E-03   -0.39904E-04   776   0.305E-02    0.542E-02
RMM:   5    -0.291124609735E+03   -0.61620E-04   -0.12438E-04   759   0.177E-02    0.288E-02
RMM:   6    -0.291124599488E+03    0.10247E-04   -0.18912E-05   685   0.609E-03    0.158E-02
RMM:   7    -0.291124598947E+03    0.54087E-06   -0.67299E-06   590   0.375E-03
  44 F= -.29109269E+03 E0= -.29109269E+03  d E =0.300679E-02  mag=    -0.0000
 trial-energy change:    0.003007  1 .order   -0.030686   -0.037021   -0.024351
 step:   1.3200(harm=  1.3200)  dis= 0.03049  next Energy=  -291.149788 (dE=-0.541E-01)
 bond charge predicted
       N       E                     dE             d eps       ncg     rms          rms(c)
RMM:   1    -0.291160342951E+03   -0.35743E-01   -0.66786E+00   766   0.420E+00    0.483E-01
RMM:   2    -0.291114732700E+03    0.45610E-01   -0.68960E-02   768   0.459E-01    0.389E-01
RMM:   3    -0.291114199277E+03    0.53342E-03   -0.64487E-03   951   0.106E-01    0.312E-01
RMM:   4    -0.291115425161E+03   -0.12259E-02   -0.22404E-03   775   0.672E-02    0.179E-01
RMM:   5    -0.291115920756E+03   -0.49560E-03   -0.88426E-04   760   0.464E-02    0.989E-02
RMM:   6    -0.291115795538E+03    0.12522E-03   -0.17662E-04   753   0.193E-02    0.457E-02
RMM:   7    -0.291115776274E+03    0.19265E-04   -0.68599E-05   708   0.114E-02    0.237E-02
RMM:   8    -0.291115775321E+03    0.95266E-06   -0.20659E-05   689   0.674E-03    0.119E-02
RMM:   9    -0.291115777032E+03   -0.17110E-05   -0.90821E-06   588   0.477E-03    0.413E-03
RMM:  10    -0.291115776925E+03    0.10662E-06   -0.97791E-07   496   0.229E-03
  45 F= -.29108376E+03 E0= -.29108376E+03  d E =0.119451E-01  mag=     0.0000
 curvature:  -2.59 expect dE=-0.315E+00 dE for cont linesearch -0.418E-04
 trial: gam= 1.27773 g(F)=  0.122E+00 g(S)=  0.000E+00 ort = 0.228E-02 (trialstep = 0.308E+00)
 search vector abs. value=  0.652E+00
 bond charge predicted
       N       E                     dE             d eps       ncg     rms          rms(c)
RMM:   1    -0.291122056439E+03   -0.62794E-02   -0.16257E+00   766   0.210E+00    0.231E-01
RMM:   2    -0.291111257204E+03    0.10799E-01   -0.16250E-02   769   0.225E-01    0.182E-01
RMM:   3    -0.291111344169E+03   -0.86965E-04   -0.16163E-03   918   0.543E-02    0.129E-01
RMM:   4    -0.291111599736E+03   -0.25557E-03   -0.30511E-04   768   0.266E-02    0.547E-02
RMM:   5    -0.291111699109E+03   -0.99372E-04   -0.12712E-04   766   0.180E-02    0.283E-02
RMM:   6    -0.291111689041E+03    0.10068E-04   -0.18873E-05   676   0.660E-03    0.158E-02
RMM:   7    -0.291111687774E+03    0.12665E-05   -0.12291E-05   634   0.460E-03    0.874E-03
RMM:   8    -0.291111688218E+03   -0.44406E-06   -0.24693E-06   527   0.284E-03
  46 F= -.29107946E+03 E0= -.29107946E+03  d E =0.429189E-02  mag=     0.0000
 trial-energy change:    0.004292  1 .order   -0.030473   -0.038433   -0.022514
 step:   0.7436(harm=  0.7436)  dis= 0.02442  next Energy=  -291.130150 (dE=-0.464E-01)
 bond charge predicted
       N       E                     dE             d eps       ncg     rms          rms(c)
RMM:   1    -0.291125049090E+03   -0.13361E-01   -0.32553E+00   766   0.297E+00    0.331E-01
RMM:   2    -0.291103338405E+03    0.21711E-01   -0.33031E-02   768   0.320E-01    0.262E-01
RMM:   3    -0.291103311811E+03    0.26593E-04   -0.32968E-03   932   0.773E-02    0.200E-01
RMM:   4    -0.291103839277E+03   -0.52747E-03   -0.73246E-04   772   0.403E-02    0.102E-01
RMM:   5    -0.291104094334E+03   -0.25506E-03   -0.37237E-04   760   0.305E-02    0.512E-02
RMM:   6    -0.291104068955E+03    0.25379E-04   -0.54183E-05   701   0.111E-02    0.261E-02
RMM:   7    -0.291104062731E+03    0.62236E-05   -0.26493E-05   674   0.681E-03    0.148E-02
RMM:   8    -0.291104063515E+03   -0.78360E-06   -0.79884E-06   608   0.450E-03
  47 F= -.29107156E+03 E0= -.29107156E+03  d E =0.122008E-01  mag=     0.0000
 curvature:  -1.94 expect dE=-0.143E+00 dE for cont linesearch -0.124E-05
 trial: gam= 0.62809 g(F)=  0.737E-01 g(S)=  0.000E+00 ort =-0.645E-03 (trialstep = 0.395E+00)
 search vector abs. value=  0.330E+00
 bond charge predicted
       N       E                     dE             d eps       ncg     rms          rms(c)
RMM:   1    -0.291107195786E+03   -0.31331E-02   -0.10518E+00   764   0.171E+00    0.185E-01
RMM:   2    -0.291100585832E+03    0.66100E-02   -0.10718E-02   774   0.190E-01    0.149E-01
RMM:   3    -0.291100691374E+03   -0.10554E-03   -0.10719E-03   917   0.464E-02    0.989E-02
RMM:   4    -0.291100830110E+03   -0.13874E-03   -0.17776E-04   768   0.211E-02    0.416E-02
RMM:   5    -0.291100896615E+03   -0.66505E-04   -0.75010E-05   739   0.142E-02    0.227E-02
RMM:   6    -0.291100889193E+03    0.74224E-05   -0.11909E-05   646   0.533E-03    0.130E-02
RMM:   7    -0.291100887977E+03    0.12160E-05   -0.10067E-05   620   0.435E-03    0.620E-03
RMM:   8    -0.291100888165E+03   -0.18860E-06   -0.15914E-06   511   0.249E-03
  48 F= -.29106842E+03 E0= -.29106842E+03  d E =0.313938E-02  mag=    -0.0000
 trial-energy change:    0.003139  1 .order   -0.023855   -0.028980   -0.018731
 step:   1.1173(harm=  1.1173)  dis= 0.02419  next Energy=  -291.112527 (dE=-0.410E-01)
 bond charge predicted
       N       E                     dE             d eps       ncg     rms          rms(c)
RMM:   1    -0.291115250764E+03   -0.14363E-01   -0.35119E+00   764   0.313E+00    0.339E-01
RMM:   2    -0.291093091999E+03    0.22159E-01   -0.36529E-02   774   0.348E-01    0.283E-01
RMM:   3    -0.291092984631E+03    0.10737E-03   -0.36641E-03   948   0.845E-02    0.220E-01
RMM:   4    -0.291093591046E+03   -0.60642E-03   -0.92285E-04   772   0.461E-02    0.116E-01
RMM:   5    -0.291093902752E+03   -0.31171E-03   -0.48323E-04   760   0.344E-02    0.653E-02
RMM:   6    -0.291093854494E+03    0.48258E-04   -0.74204E-05   716   0.130E-02    0.333E-02
RMM:   7    -0.291093843390E+03    0.11103E-04   -0.37670E-05   688   0.834E-03    0.168E-02
RMM:   8    -0.291093843464E+03   -0.73356E-07   -0.10546E-05   625   0.529E-03    0.864E-03
RMM:   9    -0.291093844319E+03   -0.85540E-06   -0.56444E-06   570   0.379E-03
  49 F= -.29106140E+03 E0= -.29106140E+03  d E =0.101562E-01  mag=    -0.0000
 curvature:  -2.51 expect dE=-0.136E+00 dE for cont linesearch -0.216E-05
 trial: gam= 0.68346 g(F)=  0.542E-01 g(S)=  0.000E+00 ort = 0.533E-03 (trialstep = 0.540E+00)
 search vector abs. value=  0.209E+00
 bond charge predicted
       N       E                     dE             d eps       ncg     rms          rms(c)
RMM:   1    -0.291097391454E+03   -0.35480E-02   -0.76402E-01   762   0.149E+00    0.170E-01
RMM:   2    -0.291093710571E+03    0.36809E-02   -0.85644E-03   774   0.178E-01    0.140E-01
RMM:   3    -0.291093773720E+03   -0.63149E-04   -0.98365E-04   898   0.478E-02    0.849E-02
RMM:   4    -0.291093849876E+03   -0.76156E-04   -0.14986E-04   769   0.204E-02    0.411E-02
RMM:   5    -0.291093895497E+03   -0.45620E-04   -0.79359E-05   745   0.145E-02    0.220E-02
RMM:   6    -0.291093889361E+03    0.61361E-05   -0.10827E-05   637   0.544E-03    0.133E-02
RMM:   7    -0.291093887686E+03    0.16748E-05   -0.11483E-05   634   0.480E-03    0.664E-03
RMM:   8    -0.291093887750E+03   -0.64287E-07   -0.19002E-06   522   0.270E-03
  50 F= -.29106177E+03 E0= -.29106177E+03  d E =-.368932E-03  mag=     0.0000
 trial-energy change:   -0.000369  1 .order   -0.020777   -0.029463   -0.012091
 step:   0.9151(harm=  0.9151)  dis= 0.01103  next Energy=  -291.086384 (dE=-0.250E-01)
 bond charge predicted
       N       E                     dE             d eps       ncg     rms          rms(c)
RMM:   1    -0.291095114164E+03   -0.12265E-02   -0.37024E-01   762   0.104E+00    0.119E-01
RMM:   2    -0.291093315505E+03    0.17987E-02   -0.41582E-03   774   0.124E-01    0.962E-02
RMM:   3    -0.291093361052E+03   -0.45546E-04   -0.46925E-04   874   0.330E-02    0.569E-02
RMM:   4    -0.291093402300E+03   -0.41249E-04   -0.72001E-05   748   0.145E-02    0.240E-02
RMM:   5    -0.291093419533E+03   -0.17233E-04   -0.26080E-05   679   0.884E-03    0.121E-02
RMM:   6    -0.291093417821E+03    0.17123E-05   -0.39451E-06   538   0.363E-03    0.844E-03
RMM:   7    -0.291093417280E+03    0.54082E-06   -0.46264E-06   561   0.327E-03
  51 F= -.29106153E+03 E0= -.29106153E+03  d E =-.131022E-03  mag=     0.0000
 curvature:  -1.75 expect dE=-0.969E-01 dE for cont linesearch -0.212E-05
 trial: gam= 1.03111 g(F)=  0.553E-01 g(S)=  0.000E+00 ort =-0.504E-03 (trialstep = 0.465E+00)
 search vector abs. value=  0.277E+00
 bond charge predicted
       N       E                     dE             d eps       ncg     rms          rms(c)
RMM:   1    -0.291098978828E+03   -0.55610E-02   -0.66432E-01   762   0.140E+00    0.170E-01
RMM:   2    -0.291096201860E+03    0.27770E-02   -0.81965E-03   774   0.171E-01    0.135E-01
RMM:   3    -0.291096261446E+03   -0.59586E-04   -0.10921E-03   910   0.486E-02    0.841E-02
RMM:   4    -0.291096333288E+03   -0.71842E-04   -0.15813E-04   764   0.200E-02    0.440E-02
RMM:   5    -0.291096389210E+03   -0.55922E-04   -0.91418E-05   750   0.156E-02    0.191E-02
RMM:   6    -0.291096383961E+03    0.52487E-05   -0.96029E-06   626   0.546E-03    0.140E-02
RMM:   7    -0.291096382191E+03    0.17704E-05   -0.19799E-05   660   0.539E-03    0.101E-02
RMM:   8    -0.291096381220E+03    0.97051E-06   -0.23027E-06   528   0.267E-03
  52 F= -.29106479E+03 E0= -.29106479E+03  d E =-.326410E-02  mag=    -0.0000
 trial-energy change:   -0.003264  1 .order   -0.017680   -0.025451   -0.009909
 step:   0.7611(harm=  0.7611)  dis= 0.00494  next Energy=  -291.082369 (dE=-0.208E-01)
 bond charge predicted
       N       E                     dE             d eps       ncg     rms          rms(c)
RMM:   1    -0.291098815430E+03   -0.24332E-02   -0.27020E-01   762   0.896E-01    0.109E-01
RMM:   2    -0.291097663409E+03    0.11520E-02   -0.33429E-03   774   0.110E-01    0.851E-02
RMM:   3    -0.291097699519E+03   -0.36110E-04   -0.44573E-04   878   0.309E-02    0.532E-02
RMM:   4    -0.291097740939E+03   -0.41419E-04   -0.74921E-05   749   0.143E-02    0.244E-02
RMM:   5    -0.291097754909E+03   -0.13970E-04   -0.25730E-05   666   0.869E-03    0.102E-02
RMM:   6    -0.291097753496E+03    0.14130E-05   -0.56586E-06   574   0.378E-03    0.767E-03
RMM:   7    -0.291097753090E+03    0.40614E-06   -0.46110E-06   573   0.321E-03
  53 F= -.29106637E+03 E0= -.29106637E+03  d E =-.483716E-02  mag=    -0.0000
 curvature:  -1.92 expect dE=-0.566E-01 dE for cont linesearch -0.491E-06
 trial: gam= 0.50419 g(F)=  0.295E-01 g(S)=  0.000E+00 ort =-0.266E-03 (trialstep = 0.524E+00)
 search vector abs. value=  0.995E-01
 bond charge predicted
       N       E                     dE             d eps       ncg     rms          rms(c)
RMM:   1    -0.291106956631E+03   -0.92031E-02   -0.60246E-01   765   0.131E+00    0.145E-01
RMM:   2    -0.291102943679E+03    0.40130E-02   -0.67300E-03   773   0.144E-01    0.115E-01
RMM:   3    -0.291103025054E+03   -0.81375E-04   -0.84361E-04   886   0.389E-02    0.706E-02
RMM:   4    -0.291103103259E+03   -0.78205E-04   -0.10788E-04   759   0.161E-02    0.361E-02
RMM:   5    -0.291103156433E+03   -0.53174E-04   -0.56230E-05   708   0.124E-02    0.168E-02
RMM:   6    -0.291103153812E+03    0.26212E-05   -0.70195E-06   601   0.460E-03    0.104E-02
RMM:   7    -0.291103152915E+03    0.89746E-06   -0.87230E-06   610   0.389E-03
  54 F= -.29107186E+03 E0= -.29107186E+03  d E =-.549615E-02  mag=     0.0000
 trial-energy change:   -0.005496  1 .order   -0.012486   -0.015373   -0.009598
 step:   1.3950(harm=  1.3950)  dis= 0.01585  next Energy=  -291.086830 (dE=-0.205E-01)
 bond charge predicted
       N       E                     dE             d eps       ncg     rms          rms(c)
RMM:   1    -0.291121200147E+03   -0.18046E-01   -0.16659E+00   766   0.218E+00    0.238E-01
RMM:   2    -0.291110102367E+03    0.11098E-01   -0.18792E-02   774   0.239E-01    0.195E-01
RMM:   3    -0.291110243947E+03   -0.14158E-03   -0.23903E-03   916   0.641E-02    0.129E-01
RMM:   4    -0.291110397701E+03   -0.15375E-03   -0.29659E-04   772   0.265E-02    0.675E-02
RMM:   5    -0.291110569267E+03   -0.17157E-03   -0.19194E-04   756   0.225E-02    0.326E-02
RMM:   6    -0.291110559563E+03    0.97036E-05   -0.24568E-05   678   0.806E-03    0.189E-02
RMM:   7    -0.291110555663E+03    0.39002E-05   -0.26751E-05   690   0.677E-03    0.114E-02
RMM:   8    -0.291110555015E+03    0.64844E-06   -0.37941E-06   548   0.337E-03
  55 F= -.29107944E+03 E0= -.29107944E+03  d E =-.130755E-01  mag=    -0.0000
 curvature:  -2.37 expect dE=-0.142E+00 dE for cont linesearch -0.101E-04
 trial: gam= 1.95862 g(F)=  0.598E-01 g(S)=  0.000E+00 ort =-0.651E-03 (trialstep = 0.158E+00)
 search vector abs. value=  0.439E+00
 bond charge predicted
       N       E                     dE             d eps       ncg     rms          rms(c)
RMM:   1    -0.291116980938E+03   -0.64253E-02   -0.36123E-01   766   0.100E+00    0.107E-01
RMM:   2    -0.291114255530E+03    0.27254E-02   -0.37473E-03   772   0.104E-01    0.843E-02
RMM:   3    -0.291114322892E+03   -0.67362E-04   -0.42490E-04   866   0.267E-02    0.510E-02
RMM:   4    -0.291114371750E+03   -0.48859E-04   -0.59216E-05   737   0.121E-02    0.246E-02
RMM:   5    -0.291114393941E+03   -0.22191E-04   -0.26428E-05   677   0.864E-03    0.118E-02
RMM:   6    -0.291114393731E+03    0.21016E-06   -0.31546E-06   544   0.341E-03
  56 F= -.29108336E+03 E0= -.29108336E+03  d E =-.391289E-02  mag=    -0.0000
 ZBRENT: can't locate minimum, use default step
 trial-energy change:   -0.003913  1 .order   -0.008637   -0.009270   -0.008005
 step:   0.6330(harm=  1.1602)  dis= 0.01952  next Energy=  -291.113423 (dE=-0.340E-01)
 bond charge predicted
       N       E                     dE             d eps       ncg     rms          rms(c)
RMM:   1    -0.291147167087E+03   -0.32773E-01   -0.32481E+00   765   0.298E+00    0.314E-01
RMM:   2    -0.291123229458E+03    0.23938E-01   -0.34163E-02   771   0.311E-01    0.266E-01
RMM:   3    -0.291123142171E+03    0.87287E-04   -0.36990E-03   938   0.761E-02    0.206E-01
RMM:   4    -0.291123850051E+03   -0.70788E-03   -0.90300E-04   766   0.460E-02    0.994E-02
RMM:   5    -0.291124067354E+03   -0.21730E-03   -0.33248E-04   760   0.288E-02    0.582E-02
RMM:   6    -0.291124032312E+03    0.35041E-04   -0.58634E-05   708   0.116E-02    0.292E-02
RMM:   7    -0.291124023414E+03    0.88986E-05   -0.28487E-05   674   0.732E-03    0.151E-02
RMM:   8    -0.291124023469E+03   -0.55164E-07   -0.15079E-05   650   0.578E-03    0.573E-03
RMM:   9    -0.291124024131E+03   -0.66180E-06   -0.29976E-06   539   0.301E-03
  57 F= -.29109318E+03 E0= -.29109318E+03  d E =-.137335E-01  mag=     0.0000
 curvature:  -3.14 expect dE=-0.111E+00 dE for cont linesearch -0.454E-02
 ZBRENT: increasing intervall
 opt :   1.5825  next Energy=  -291.092958 (dE=-0.135E-01)
 bond charge predicted
       N       E                     dE             d eps       ncg     rms          rms(c)
RMM:   1    -0.291233489331E+03   -0.10947E+00   -0.13024E+01   765   0.593E+00    0.646E-01
RMM:   2    -0.291135401650E+03    0.98088E-01   -0.14932E-01   769   0.636E-01    0.600E-01
RMM:   3    -0.291132970260E+03    0.24314E-02   -0.13774E-02   955   0.149E-01    0.492E-01
RMM:   4    -0.291134243307E+03   -0.12730E-02   -0.70187E-03   770   0.115E-01    0.294E-01
RMM:   5    -0.291136398895E+03   -0.21556E-02   -0.38680E-03   766   0.874E-02    0.231E-01
RMM:   6    -0.291135563504E+03    0.83539E-03   -0.65606E-04   765   0.383E-02    0.117E-01
RMM:   7    -0.291135386092E+03    0.17741E-03   -0.40324E-04   758   0.261E-02    0.514E-02
RMM:   8    -0.291135365008E+03    0.21085E-04   -0.14444E-04   724   0.170E-02    0.245E-02
RMM:   9    -0.291135362947E+03    0.20609E-05   -0.55367E-05   723   0.970E-03    0.973E-03
RMM:  10    -0.291135364028E+03   -0.10808E-05   -0.15230E-05   634   0.551E-03    0.642E-03
RMM:  11    -0.291135363366E+03    0.66166E-06   -0.19077E-06   524   0.254E-03
  58 F= -.29110483E+03 E0= -.29110483E+03  d E =-.253885E-01  mag=    -0.0000
 curvature:   0.15 expect dE= 0.205E-01 dE for cont linesearch  0.284E-03
 ZBRENT: bracketing found
 ZBRENT: interpolating
 opt :   1.0771  next Energy=  -291.098767 (dE=-0.193E-01)
 bond charge predicted
       N       E                     dE             d eps       ncg     rms          rms(c)
RMM:   1    -0.291155914724E+03   -0.20551E-01   -0.36715E+00   765   0.316E+00    0.367E-01
RMM:   2    -0.291129711982E+03    0.26203E-01   -0.40219E-02   771   0.330E-01    0.269E-01
RMM:   3    -0.291129612962E+03    0.99020E-04   -0.41679E-03   969   0.806E-02    0.220E-01
RMM:   4    -0.291130231203E+03   -0.61824E-03   -0.10141E-03   768   0.453E-02    0.120E-01
RMM:   5    -0.291130589216E+03   -0.35801E-03   -0.52966E-04   764   0.349E-02    0.563E-02
RMM:   6    -0.291130536159E+03    0.53057E-04   -0.69325E-05   708   0.130E-02    0.323E-02
RMM:   7    -0.291130516095E+03    0.20064E-04   -0.73609E-05   706   0.979E-03    0.158E-02
RMM:   8    -0.291130515171E+03    0.92339E-06   -0.12017E-05   650   0.508E-03    0.103E-02
RMM:   9    -0.291130516088E+03   -0.91644E-06   -0.99520E-06   614   0.469E-03
  59 F= -.29109982E+03 E0= -.29109982E+03  d E =-.203766E-01  mag=    -0.0000
 curvature:  -2.99 expect dE=-0.184E+00 dE for cont linesearch -0.489E-05
 trial: gam= 0.89896 g(F)=  0.615E-01 g(S)=  0.000E+00 ort = 0.848E-03 (trialstep = 0.342E+00)
 search vector abs. value=  0.418E+00
 bond charge predicted
       N       E                     dE             d eps       ncg     rms          rms(c)
RMM:   1    -0.291153188931E+03   -0.22674E-01   -0.23572E+00   764   0.249E+00    0.265E-01
RMM:   2    -0.291135942790E+03    0.17246E-01   -0.23278E-02   766   0.252E-01    0.216E-01
RMM:   3    -0.291135880390E+03    0.62400E-04   -0.23521E-03   924   0.586E-02    0.170E-01
RMM:   4    -0.291136491892E+03   -0.61150E-03   -0.62759E-04   770   0.379E-02    0.867E-02
RMM:   5    -0.291136602672E+03   -0.11078E-03   -0.21271E-04   758   0.229E-02    0.467E-02
RMM:   6    -0.291136580220E+03    0.22451E-04   -0.41696E-05   682   0.932E-03    0.210E-02
RMM:   7    -0.291136575850E+03    0.43705E-05   -0.16199E-05   645   0.542E-03    0.115E-02
RMM:   8    -0.291136576058E+03   -0.20831E-06   -0.73991E-06   582   0.400E-03
  60 F= -.29110586E+03 E0= -.29110586E+03  d E =-.603613E-02  mag=     0.0000
 ZBRENT: can't locate minimum, use default step
 trial-energy change:   -0.006036  1 .order   -0.019141   -0.021283   -0.016999
 step:   1.3681(harm=  1.6994)  dis= 0.04827  next Energy=  -291.152693 (dE=-0.529E-01)
 bond charge predicted
       N       E                     dE             d eps       ncg     rms          rms(c)
RMM:   1    -0.291317877910E+03   -0.18130E+00   -0.21318E+01   764   0.731E+00    0.973E-01
RMM:   2    -0.291153501813E+03    0.16438E+00   -0.26981E-01   766   0.839E-01    0.874E-01
RMM:   3    -0.291143844211E+03    0.96576E-02   -0.19530E-02   895   0.185E-01    0.656E-01
RMM:   4    -0.291143574103E+03    0.27011E-03   -0.11895E-02   768   0.145E-01    0.428E-01
RMM:   5    -0.291149678324E+03   -0.61042E-02   -0.12743E-02   766   0.136E-01    0.437E-01
RMM:   6    -0.291146519705E+03    0.31586E-02   -0.28229E-03   764   0.771E-02    0.173E-01
RMM:   7    -0.291146125728E+03    0.39398E-03   -0.11535E-03   770   0.429E-02    0.643E-02
RMM:   8    -0.291146100873E+03    0.24854E-04   -0.29537E-04   762   0.241E-02    0.285E-02
RMM:   9    -0.291146101571E+03   -0.69811E-06   -0.98253E-05   728   0.121E-02    0.138E-02
RMM:  10    -0.291146101105E+03    0.46597E-06   -0.12287E-05   596   0.604E-03    0.521E-03
RMM:  11    -0.291146101443E+03   -0.33755E-06   -0.23978E-06   528   0.275E-03
  61 F= -.29111521E+03 E0= -.29111521E+03  d E =-.153915E-01  mag=     0.0000
 curvature:  -5.37 expect dE=-0.483E+00 dE for cont linesearch -0.101E-02
 trial: gam= 1.15118 g(F)=  0.900E-01 g(S)=  0.000E+00 ort = 0.886E-02 (trialstep = 0.344E+00)
 search vector abs. value=  0.664E+00
 bond charge predicted
       N       E                     dE             d eps       ncg     rms          rms(c)
RMM:   1    -0.291180048215E+03   -0.33947E-01   -0.45826E+00   764   0.343E+00    0.391E-01
RMM:   2    -0.291146822240E+03    0.33226E-01   -0.46775E-02   766   0.361E-01    0.318E-01
RMM:   3    -0.291146204464E+03    0.61778E-03   -0.41116E-03   920   0.801E-02    0.251E-01
RMM:   4    -0.291147126191E+03   -0.92173E-03   -0.16040E-03   766   0.567E-02    0.161E-01
RMM:   5    -0.291147614230E+03   -0.48804E-03   -0.64110E-04   766   0.374E-02    0.105E-01
RMM:   6    -0.291147474014E+03    0.14022E-03   -0.17932E-04   706   0.193E-02    0.422E-02
RMM:   7    -0.291147448852E+03    0.25161E-04   -0.75740E-05   710   0.113E-02    0.178E-02
RMM:   8    -0.291147447848E+03    0.10040E-05   -0.17322E-05   662   0.596E-03    0.961E-03
RMM:   9    -0.291147448364E+03   -0.51598E-06   -0.66927E-06   588   0.377E-03
  62 F= -.29111647E+03 E0= -.29111647E+03  d E =-.125796E-02  mag=     0.0000
 trial-energy change:   -0.001258  1 .order   -0.028021   -0.034485   -0.021557
 step:   0.9185(harm=  0.9185)  dis= 0.04103  next Energy=  -291.161207 (dE=-0.460E-01)
 bond charge predicted
       N       E                     dE             d eps       ncg     rms          rms(c)
RMM:   1    -0.291238627207E+03   -0.91179E-01   -0.12755E+01   764   0.564E+00    0.743E-01
RMM:   2    -0.291145439061E+03    0.93188E-01   -0.14915E-01   766   0.639E-01    0.627E-01
RMM:   3    -0.291140829416E+03    0.46096E-02   -0.11099E-02   899   0.139E-01    0.468E-01
RMM:   4    -0.291141537168E+03   -0.70775E-03   -0.58948E-03   769   0.103E-01    0.321E-01
RMM:   5    -0.291144533320E+03   -0.29962E-02   -0.49399E-03   768   0.874E-02    0.296E-01
RMM:   6    -0.291143185689E+03    0.13476E-02   -0.12862E-03   762   0.519E-02    0.115E-01
RMM:   7    -0.291142993973E+03    0.19172E-03   -0.58279E-04   736   0.301E-02    0.368E-02
RMM:   8    -0.291142989755E+03    0.42180E-05   -0.11629E-04   739   0.160E-02    0.181E-02
RMM:   9    -0.291142991317E+03   -0.15623E-05   -0.38061E-05   692   0.744E-03    0.923E-03
RMM:  10    -0.291142991661E+03   -0.34392E-06   -0.54885E-06   548   0.414E-03
  63 F= -.29111177E+03 E0= -.29111177E+03  d E =0.344092E-02  mag=    -0.0000
 curvature:  -3.05 expect dE=-0.345E+00 dE for cont linesearch -0.507E-06
 trial: gam= 1.28944 g(F)=  0.113E+00 g(S)=  0.000E+00 ort =-0.333E-03 (trialstep = 0.251E+00)
 search vector abs. value=  0.122E+01
 bond charge predicted
       N       E                     dE             d eps       ncg     rms          rms(c)
RMM:   1    -0.291172112319E+03   -0.29121E-01   -0.48716E+00   764   0.352E+00    0.418E-01
RMM:   2    -0.291137091078E+03    0.35021E-01   -0.50271E-02   766   0.387E-01    0.338E-01
RMM:   3    -0.291136209533E+03    0.88154E-03   -0.40058E-03   904   0.829E-02    0.263E-01
RMM:   4    -0.291137081547E+03   -0.87201E-03   -0.17762E-03   772   0.582E-02    0.178E-01
RMM:   5    -0.291137722324E+03   -0.64078E-03   -0.79692E-04   764   0.406E-02    0.125E-01
RMM:   6    -0.291137498611E+03    0.22371E-03   -0.26554E-04   722   0.231E-02    0.449E-02
RMM:   7    -0.291137471043E+03    0.27568E-04   -0.97108E-05   714   0.130E-02    0.170E-02
RMM:   8    -0.291137471003E+03    0.39572E-07   -0.19576E-05   676   0.612E-03    0.912E-03
[...]
RMM:   5    -0.291133669853E+03   -0.32960E-07   -0.12970E-07   322   0.956E-04    0.625E-04
RMM:   6    -0.291133669850E+03    0.25448E-08   -0.36177E-08   248   0.651E-04
 224 F= -.29110291E+03 E0= -.29110291E+03  d E =-.878644E-04  mag=     0.0000
 ZBRENT: can't locate minimum, use default step
 trial-energy change:   -0.000088  1 .order   -0.000102   -0.000107   -0.000098
 step:   0.6565(harm=  1.9073)  dis= 0.00068  next Energy=  -291.103445 (dE=-0.622E-03)
 bond charge predicted
       N       E                     dE             d eps       ncg     rms          rms(c)
RMM:   1    -0.291133838051E+03   -0.16820E-03   -0.66913E-03   764   0.135E-01    0.158E-02
RMM:   2    -0.291133810861E+03    0.27190E-04   -0.90876E-05   716   0.169E-02    0.118E-02
RMM:   3    -0.291133811413E+03   -0.55197E-06   -0.10939E-05   628   0.509E-03    0.823E-03
RMM:   4    -0.291133812299E+03   -0.88560E-06   -0.21556E-06   512   0.282E-03    0.497E-03
RMM:   5    -0.291133812714E+03   -0.41567E-06   -0.12666E-06   466   0.239E-03    0.208E-03
RMM:   6    -0.291133812691E+03    0.23030E-07   -0.18911E-07   400   0.129E-03
 225 F= -.29110313E+03 E0= -.29110313E+03  d E =-.307452E-03  mag=    -0.0000
 curvature:  -0.67 expect dE=-0.239E-03 dE for cont linesearch -0.131E-03
 ZBRENT: increasing intervall
 opt :   1.6412  next Energy=  -291.103389 (dE=-0.566E-03)
 bond charge predicted
       N       E                     dE             d eps       ncg     rms          rms(c)
RMM:   1    -0.291134072754E+03   -0.26004E-03   -0.26792E-02   764   0.270E-01    0.315E-02
RMM:   2    -0.291133962184E+03    0.11057E-03   -0.36328E-04   760   0.338E-02    0.237E-02
RMM:   3    -0.291133965049E+03   -0.28656E-05   -0.47071E-05   800   0.101E-02    0.167E-02
RMM:   4    -0.291133968548E+03   -0.34988E-05   -0.87351E-06   620   0.462E-03    0.105E-02
RMM:   5    -0.291133970369E+03   -0.18209E-05   -0.57359E-06   572   0.382E-03    0.448E-03
RMM:   6    -0.291133970223E+03    0.14627E-06   -0.51180E-07   456   0.180E-03
 226 F= -.29110344E+03 E0= -.29110344E+03  d E =-.615692E-03  mag=     0.0000
 curvature:  -1.33 expect dE=-0.553E-03 dE for cont linesearch -0.137E-04
 ZBRENT: extrapolating
 opt :   1.9360  next Energy=  -291.103453 (dE=-0.630E-03)
 bond charge predicted
       N       E                     dE             d eps       ncg     rms          rms(c)
RMM:   1    -0.291133992272E+03   -0.21903E-04   -0.24133E-03   762   0.809E-02    0.924E-03
RMM:   2    -0.291133982288E+03    0.99843E-05   -0.33313E-05   674   0.103E-02    0.730E-03
RMM:   3    -0.291133982542E+03   -0.25437E-06   -0.33025E-06   516   0.311E-03    0.521E-03
RMM:   4    -0.291133983213E+03   -0.67048E-06   -0.95864E-07   472   0.220E-03    0.283E-03
RMM:   5    -0.291133983323E+03   -0.11034E-06   -0.38511E-07   432   0.163E-03    0.116E-03
RMM:   6    -0.291133983294E+03    0.29397E-07   -0.93459E-08   352   0.892E-04
 227 F= -.29110348E+03 E0= -.29110348E+03  d E =-.659244E-03  mag=     0.0000
 curvature:  -1.41 expect dE=-0.771E-03 dE for cont linesearch -0.250E-07
 trial: gam= 0.81273 g(F)=  0.548E-03 g(S)=  0.000E+00 ort = 0.410E-05 (trialstep = 0.416E+00)
 search vector abs. value=  0.118E-02
 bond charge predicted
       N       E                     dE             d eps       ncg     rms          rms(c)
RMM:   1    -0.291134081773E+03   -0.98450E-04   -0.40641E-03   766   0.106E-01    0.108E-02
RMM:   2    -0.291134051152E+03    0.30620E-04   -0.50215E-05   694   0.125E-02    0.837E-03
RMM:   3    -0.291134051581E+03   -0.42868E-06   -0.44371E-06   552   0.352E-03    0.584E-03
RMM:   4    -0.291134052558E+03   -0.97722E-06   -0.14190E-06   480   0.250E-03    0.151E-03
RMM:   5    -0.291134052557E+03    0.15461E-08   -0.26452E-07   418   0.144E-03    0.103E-03
RMM:   6    -0.291134052551E+03    0.60900E-08   -0.11097E-07   368   0.914E-04
 228 F= -.29110355E+03 E0= -.29110355E+03  d E =-.678787E-04  mag=    -0.0000
 trial-energy change:   -0.000068  1 .order   -0.000189   -0.000229   -0.000150
 step:   1.1987(harm=  1.1987)  dis= 0.00156  next Energy=  -291.103812 (dE=-0.330E-03)
 bond charge predicted
       N       E                     dE             d eps       ncg     rms          rms(c)
RMM:   1    -0.291134271124E+03   -0.21857E-03   -0.14406E-02   766   0.200E-01    0.204E-02
RMM:   2    -0.291134161401E+03    0.10972E-03   -0.17865E-04   760   0.235E-02    0.157E-02
RMM:   3    -0.291134163775E+03   -0.23740E-05   -0.17466E-05   710   0.632E-03    0.111E-02
RMM:   4    -0.291134168020E+03   -0.42447E-05   -0.45740E-06   556   0.380E-03    0.327E-03
RMM:   5    -0.291134168011E+03    0.83492E-08   -0.61634E-07   458   0.197E-03    0.204E-03
RMM:   6    -0.291134167950E+03    0.61344E-07   -0.22303E-07   430   0.128E-03
 229 F= -.29110367E+03 E0= -.29110367E+03  d E =-.189723E-03  mag=     0.0000
 curvature:  -1.28 expect dE=-0.119E-02 dE for cont linesearch -0.335E-06
 trial: gam= 1.64503 g(F)=  0.930E-03 g(S)=  0.000E+00 ort = 0.176E-04 (trialstep = 0.161E+00)
 search vector abs. value=  0.418E-02
 bond charge predicted
       N       E                     dE             d eps       ncg     rms          rms(c)
RMM:   1    -0.291134236593E+03   -0.68582E-04   -0.29220E-03   766   0.895E-02    0.949E-03
RMM:   2    -0.291134215098E+03    0.21495E-04   -0.34157E-05   672   0.101E-02    0.731E-03
RMM:   3    -0.291134215393E+03   -0.29474E-06   -0.28255E-06   510   0.290E-03    0.494E-03
RMM:   4    -0.291134216170E+03   -0.77786E-06   -0.10273E-06   460   0.218E-03    0.213E-03
RMM:   5    -0.291134216171E+03   -0.78217E-09   -0.33772E-07   418   0.163E-03    0.880E-04
RMM:   6    -0.291134216183E+03   -0.11414E-07   -0.10634E-07   362   0.896E-04
 230 F= -.29110370E+03 E0= -.29110370E+03  d E =-.300771E-04  mag=    -0.0000
 ZBRENT: can't locate minimum, use default step
 trial-energy change:   -0.000030  1 .order   -0.000142   -0.000155   -0.000129
 step:   0.6460(harm=  0.9785)  dis= 0.00169  next Energy=  -291.104140 (dE=-0.469E-03)
 bond charge predicted
       N       E                     dE             d eps       ncg     rms          rms(c)
RMM:   1    -0.291134504316E+03   -0.28814E-03   -0.26179E-02   766   0.268E-01    0.281E-02
RMM:   2    -0.291134311271E+03    0.19305E-03   -0.30564E-04   762   0.303E-02    0.215E-02
RMM:   3    -0.291134314336E+03   -0.30648E-05   -0.29495E-05   764   0.807E-03    0.150E-02
RMM:   4    -0.291134322237E+03   -0.79009E-05   -0.80595E-06   616   0.473E-03    0.697E-03
RMM:   5    -0.291134322486E+03   -0.24971E-06   -0.22160E-06   518   0.286E-03    0.263E-03
RMM:   6    -0.291134322407E+03    0.78904E-07   -0.33933E-07   450   0.149E-03
 231 F= -.29110375E+03 E0= -.29110375E+03  d E =-.761697E-04  mag=    -0.0000
 curvature:  -1.78 expect dE=-0.537E-03 dE for cont linesearch -0.455E-04
 ZBRENT: increasing intervall
 opt :   1.6150  next Energy=  -291.103606 (dE= 0.656E-04)
 bond charge predicted
       N       E                     dE             d eps       ncg     rms          rms(c)
RMM:   1    -0.291135069496E+03   -0.74701E-03   -0.10452E-01   766   0.534E-01    0.564E-02
RMM:   2    -0.291134328365E+03    0.74113E-03   -0.12024E-03   764   0.603E-02    0.431E-02
RMM:   3    -0.291134334937E+03   -0.65714E-05   -0.11810E-04   888   0.160E-02    0.304E-02
RMM:   4    -0.291134362232E+03   -0.27295E-04   -0.32850E-05   704   0.908E-03    0.141E-02
RMM:   5    -0.291134364517E+03   -0.22853E-05   -0.96408E-06   632   0.507E-03    0.543E-03
RMM:   6    -0.291134363982E+03    0.53517E-06   -0.11706E-06   502   0.214E-03
 232 F= -.29110367E+03 E0= -.29110367E+03  d E =0.314954E-05  mag=    -0.0000
 curvature:   5.54 expect dE= 0.883E-02 dE for cont linesearch  0.517E-03
 ZBRENT: bracketing found
 ZBRENT: interpolating
 opt :   0.9790  next Energy=  -291.103802 (dE=-0.131E-03)
 bond charge predicted
       N       E                     dE             d eps       ncg     rms          rms(c)
RMM:   1    -0.291134675947E+03   -0.31143E-03   -0.44956E-02   766   0.351E-01    0.365E-02
RMM:   2    -0.291134348249E+03    0.32770E-03   -0.52018E-04   764   0.394E-02    0.279E-02
RMM:   3    -0.291134351773E+03   -0.35245E-05   -0.50759E-05   844   0.105E-02    0.193E-02
RMM:   4    -0.291134362794E+03   -0.11020E-04   -0.12682E-05   648   0.580E-03    0.931E-03
RMM:   5    -0.291134363651E+03   -0.85746E-06   -0.39908E-06   550   0.349E-03    0.345E-03
RMM:   6    -0.291134363592E+03    0.59357E-07   -0.45274E-07   434   0.170E-03
 233 F= -.29110377E+03 E0= -.29110377E+03  d E =-.962932E-04  mag=    -0.0000
 curvature:  -0.58 expect dE=-0.253E-03 dE for cont linesearch -0.133E-06
 trial: gam= 0.46490 g(F)=  0.434E-03 g(S)=  0.000E+00 ort = 0.309E-04 (trialstep = 0.325E+00)
 search vector abs. value=  0.137E-02
 bond charge predicted
       N       E                     dE             d eps       ncg     rms          rms(c)
RMM:   1    -0.291134402588E+03   -0.38937E-04   -0.49022E-03   764   0.114E-01    0.118E-02
RMM:   2    -0.291134362784E+03    0.39804E-04   -0.53565E-05   686   0.124E-02    0.883E-03
RMM:   3    -0.291134363370E+03   -0.58585E-06   -0.48186E-06   508   0.338E-03    0.579E-03
RMM:   4    -0.291134364402E+03   -0.10326E-05   -0.10828E-06   430   0.224E-03    0.275E-03
RMM:   5    -0.291134364477E+03   -0.74371E-07   -0.41860E-07   402   0.177E-03    0.939E-04
RMM:   6    -0.291134364502E+03   -0.24895E-07   -0.10827E-07   354   0.969E-04
 234 F= -.29110374E+03 E0= -.29110374E+03  d E =0.254826E-04  mag=    -0.0000
 trial-energy change:    0.000025  1 .order   -0.000105   -0.000146   -0.000064
 step:   0.5826(harm=  0.5826)  dis= 0.00112  next Energy=  -291.103898 (dE=-0.131E-03)
 bond charge predicted
       N       E                     dE             d eps       ncg     rms          rms(c)
RMM:   1    -0.291134382934E+03   -0.18457E-04   -0.30914E-03   764   0.909E-02    0.954E-03
RMM:   2    -0.291134357994E+03    0.24940E-04   -0.34076E-05   666   0.992E-03    0.725E-03
RMM:   3    -0.291134358546E+03   -0.55174E-06   -0.28915E-06   490   0.276E-03    0.468E-03
RMM:   4    -0.291134359354E+03   -0.80827E-06   -0.83105E-07   434   0.203E-03    0.205E-03
RMM:   5    -0.291134359356E+03   -0.19845E-08   -0.28481E-07   398   0.151E-03    0.682E-04
RMM:   6    -0.291134359366E+03   -0.98626E-08   -0.86209E-08   314   0.799E-04
 235 F= -.29110373E+03 E0= -.29110373E+03  d E =0.415740E-04  mag=     0.0000
 curvature:  -0.89 expect dE=-0.321E-03 dE for cont linesearch -0.529E-07
 trial: gam= 0.79741 g(F)=  0.362E-03 g(S)=  0.000E+00 ort = 0.903E-05 (trialstep = 0.377E+00)
 search vector abs. value=  0.124E-02
 bond charge predicted
       N       E                     dE             d eps       ncg     rms          rms(c)
RMM:   1    -0.291134394286E+03   -0.34930E-04   -0.75878E-03   766   0.141E-01    0.152E-02
RMM:   2    -0.291134329973E+03    0.64313E-04   -0.82160E-05   696   0.151E-02    0.114E-02
RMM:   3    -0.291134332350E+03   -0.23762E-05   -0.74296E-06   574   0.402E-03    0.689E-03
RMM:   4    -0.291134334484E+03   -0.21342E-05   -0.14321E-06   480   0.259E-03    0.240E-03
RMM:   5    -0.291134334482E+03    0.14606E-08   -0.37805E-07   428   0.172E-03    0.981E-04
RMM:   6    -0.291134334486E+03   -0.34161E-08   -0.11997E-07   370   0.960E-04
 236 F= -.29110371E+03 E0= -.29110371E+03  d E =0.167813E-04  mag=    -0.0000
 ZBRENT: can't locate minimum, use default step
 trial-energy change:    0.000017  1 .order   -0.000124   -0.000139   -0.000109
 step:   1.5061(harm=  1.7749)  dis= 0.00321  next Energy=  -291.104053 (dE=-0.327E-03)
 bond charge predicted
       N       E                     dE             d eps       ncg     rms          rms(c)
RMM:   1    -0.291134760207E+03   -0.42572E-03   -0.68341E-02   766   0.424E-01    0.453E-02
RMM:   2    -0.291134180145E+03    0.58006E-03   -0.74114E-04   764   0.453E-02    0.342E-02
RMM:   3    -0.291134193550E+03   -0.13405E-04   -0.71088E-05   856   0.115E-02    0.206E-02
RMM:   4    -0.291134214364E+03   -0.20814E-04   -0.11715E-05   638   0.604E-03    0.733E-03
RMM:   5    -0.291134214775E+03   -0.41083E-06   -0.22999E-06   514   0.273E-03    0.304E-03
RMM:   6    -0.291134214765E+03    0.10585E-07   -0.36775E-07   464   0.154E-03
 237 F= -.29110361E+03 E0= -.29110361E+03  d E =0.118431E-03  mag=    -0.0000
 curvature:  -2.88 expect dE=-0.480E-03 dE for cont linesearch -0.117E-04
 ZBRENT: extrapolating
 opt :   1.8713  next Energy=  -291.103621 (dE= 0.105E-03)
 bond charge predicted
       N       E                     dE             d eps       ncg     rms          rms(c)
RMM:   1    -0.291134216069E+03   -0.12935E-05   -0.71598E-03   766   0.137E-01    0.148E-02
RMM:   2    -0.291134154836E+03    0.61232E-04   -0.78064E-05   692   0.147E-02    0.112E-02
RMM:   3    -0.291134157248E+03   -0.24122E-05   -0.70513E-06   574   0.391E-03    0.674E-03
RMM:   4    -0.291134159382E+03   -0.21333E-05   -0.13556E-06   490   0.254E-03    0.223E-03
RMM:   5    -0.291134159361E+03    0.20191E-07   -0.35110E-07   434   0.167E-03    0.941E-04
RMM:   6    -0.291134159359E+03    0.25138E-08   -0.11867E-07   386   0.934E-04
 238 F= -.29110356E+03 E0= -.29110356E+03  d E =0.170808E-03  mag=     0.0000
 curvature:  -3.20 expect dE=-0.753E-03 dE for cont linesearch -0.188E-06
 trial: gam= 0.66622 g(F)=  0.235E-03 g(S)=  0.000E+00 ort = 0.854E-05 (trialstep = 0.675E+00)
 search vector abs. value=  0.799E-03
 bond charge predicted
       N       E                     dE             d eps       ncg     rms          rms(c)
RMM:   1    -0.291134167510E+03   -0.81482E-05   -0.17151E-02   766   0.211E-01    0.232E-02
RMM:   2    -0.291134011682E+03    0.15583E-03   -0.17799E-04   730   0.217E-02    0.173E-02
RMM:   3    -0.291134017639E+03   -0.59577E-05   -0.15103E-05   640   0.543E-03    0.981E-03
RMM:   4    -0.291134023206E+03   -0.55667E-05   -0.23038E-06   522   0.294E-03    0.322E-03
RMM:   5    -0.291134023285E+03   -0.79253E-07   -0.61010E-07   454   0.190E-03    0.155E-03
RMM:   6    -0.291134023284E+03    0.13642E-08   -0.16504E-07   400   0.114E-03
 239 F= -.29110345E+03 E0= -.29110345E+03  d E =0.106365E-03  mag=    -0.0000
 trial-energy change:    0.000106  1 .order   -0.000126   -0.000163   -0.000089
 step:   1.4912(harm=  1.4912)  dis= 0.00260  next Energy=  -291.103735 (dE=-0.180E-03)
 bond charge predicted
       N       E                     dE             d eps       ncg     rms          rms(c)
RMM:   1    -0.291134050953E+03   -0.27668E-04   -0.25031E-02   766   0.255E-01    0.280E-02
RMM:   2    -0.291133822274E+03    0.22868E-03   -0.26087E-04   750   0.262E-02    0.208E-02
RMM:   3    -0.291133830475E+03   -0.82016E-05   -0.22355E-05   680   0.651E-03    0.119E-02
RMM:   4    -0.291133838800E+03   -0.83245E-05   -0.31747E-06   542   0.334E-03    0.373E-03
RMM:   5    -0.291133838950E+03   -0.15027E-06   -0.78498E-07   466   0.204E-03    0.188E-03
RMM:   6    -0.291133838945E+03    0.53587E-08   -0.18751E-07   414   0.122E-03
 240 F= -.29110330E+03 E0= -.29110330E+03  d E =0.256031E-03  mag=     0.0000
 curvature:  -2.47 expect dE=-0.129E-02 dE for cont linesearch -0.240E-06
 trial: gam= 2.23418 g(F)=  0.524E-03 g(S)=  0.000E+00 ort = 0.880E-05 (trialstep = 0.147E+00)
 search vector abs. value=  0.455E-02
 bond charge predicted
       N       E                     dE             d eps       ncg     rms          rms(c)
RMM:   1    -0.291133788415E+03    0.50535E-04   -0.45718E-03   762   0.108E-01    0.120E-02
RMM:   2    -0.291133746110E+03    0.42305E-04   -0.46997E-05   672   0.111E-02    0.890E-03
RMM:   3    -0.291133747711E+03   -0.16015E-05   -0.36419E-06   502   0.284E-03    0.507E-03
RMM:   4    -0.291133749000E+03   -0.12890E-05   -0.65865E-07   446   0.188E-03    0.174E-03
RMM:   5    -0.291133748999E+03    0.11551E-08   -0.25060E-07   402   0.142E-03    0.681E-04
RMM:   6    -0.291133749001E+03   -0.16335E-08   -0.84157E-08   313   0.759E-04
 241 F= -.29110321E+03 E0= -.29110321E+03  d E =0.858542E-04  mag=    -0.0000
 ZBRENT: can't locate minimum, use default step
 trial-energy change:    0.000086  1 .order   -0.000076   -0.000080   -0.000072
 step:   0.5889(harm=  1.4905)  dis= 0.00240  next Energy=  -291.103704 (dE=-0.405E-03)
 bond charge predicted
       N       E                     dE             d eps       ncg     rms          rms(c)
RMM:   1    -0.291133827767E+03   -0.78768E-04   -0.41135E-02   764   0.325E-01    0.357E-02
RMM:   2    -0.291133443731E+03    0.38404E-03   -0.42172E-04   756   0.331E-02    0.265E-02
RMM:   3    -0.291133455674E+03   -0.11943E-04   -0.35291E-05   740   0.791E-03    0.151E-02
RMM:   4    -0.291133469142E+03   -0.13468E-04   -0.49999E-06   578   0.397E-03    0.492E-03
RMM:   5    -0.291133469214E+03   -0.71988E-07   -0.11007E-06   476   0.225E-03    0.219E-03
RMM:   6    -0.291133469225E+03   -0.10394E-07   -0.22617E-07   438   0.129E-03
 242 F= -.29110296E+03 E0= -.29110296E+03  d E =0.342691E-03  mag=     0.0000
 curvature:  -3.43 expect dE=-0.814E-03 dE for cont linesearch -0.714E-04
 ZBRENT: increasing intervall
 opt :   1.4722  next Energy=  -291.103068 (dE= 0.232E-03)
 bond charge predicted
       N       E                     dE             d eps       ncg     rms          rms(c)
RMM:   1    -0.291134281729E+03   -0.81251E-03   -0.16472E-01   764   0.652E-01    0.714E-02
RMM:   2    -0.291132760005E+03    0.15217E-02   -0.16960E-03   764   0.663E-02    0.531E-02
RMM:   3    -0.291132786450E+03   -0.26445E-04   -0.14196E-04   848   0.157E-02    0.307E-02
RMM:   4    -0.291132828757E+03   -0.42307E-04   -0.21477E-05   706   0.746E-03    0.109E-02
RMM:   5    -0.291132830302E+03   -0.15449E-05   -0.52904E-06   584   0.382E-03    0.465E-03
RMM:   6    -0.291132830367E+03   -0.65264E-07   -0.60062E-07   478   0.175E-03
 243 F= -.29110236E+03 E0= -.29110236E+03  d E =0.937872E-03  mag=    -0.0000
 curvature:  -5.34 expect dE=-0.329E-02 dE for cont linesearch -0.200E-04
 ZBRENT: bracketing found
 ZBRENT: interpolating
 opt :   1.2092  next Energy=  -291.102379 (dE= 0.921E-03)
 bond charge predicted
       N       E                     dE             d eps       ncg     rms          rms(c)
RMM:   1    -0.291133162861E+03   -0.33256E-03   -0.14572E-02   764   0.194E-01    0.212E-02
RMM:   2    -0.291133025653E+03    0.13721E-03   -0.14831E-04   714   0.196E-02    0.156E-02
RMM:   3    -0.291133029840E+03   -0.41871E-05   -0.11194E-05   590   0.469E-03    0.875E-03
RMM:   4    -0.291133033953E+03   -0.41128E-05   -0.16215E-06   466   0.264E-03    0.209E-03
RMM:   5    -0.291133033959E+03   -0.58644E-08   -0.33301E-07   406   0.151E-03    0.132E-03
RMM:   6    -0.291133033981E+03   -0.21504E-07   -0.12644E-07   366   0.972E-04
 244 F= -.29110255E+03 E0= -.29110255E+03  d E =0.747791E-03  mag=    -0.0000
 curvature:  -4.59 expect dE=-0.177E-02 dE for cont linesearch -0.147E-06
 trial: gam= 0.72353 g(F)=  0.385E-03 g(S)=  0.000E+00 ort = 0.121E-04 (trialstep = 0.360E+00)
 search vector abs. value=  0.278E-02
 bond charge predicted
       N       E                     dE             d eps       ncg     rms          rms(c)
RMM:   1    -0.291132977482E+03    0.56477E-04   -0.15038E-02   764   0.196E-01    0.217E-02
RMM:   2    -0.291132835052E+03    0.14243E-03   -0.15187E-04   700   0.195E-02    0.160E-02
RMM:   3    -0.291132839915E+03   -0.48623E-05   -0.11151E-05   594   0.457E-03    0.903E-03
RMM:   4    -0.291132844554E+03   -0.46391E-05   -0.16443E-06   478   0.264E-03    0.170E-03
RMM:   5    -0.291132844576E+03   -0.22235E-07   -0.29061E-07   416   0.137E-03    0.123E-03
RMM:   6    -0.291132844583E+03   -0.69613E-08   -0.12533E-07   360   0.944E-04
 245 F= -.29110235E+03 E0= -.29110235E+03  d E =0.203041E-03  mag=     0.0000
 trial-energy change:    0.000203  1 .order   -0.000113   -0.000142   -0.000085
 step:   0.9040(harm=  0.9040)  dis= 0.00259  next Energy=  -291.102729 (dE=-0.178E-03)
 reached required accuracy - stopping structural energy minimisation
 writing wavefunctions
