TS_BlakPhos                             
           1
    13.254400    0.000000    0.000000
     0.000000   13.128900    0.000000
     0.000000    0.000000   20.000000
   P    Ru   C    O 
  48   1   1   3
Direct configuration=     1
   0.06994885  0.20699565  0.04497680
   0.19547426  0.31928258  0.04343506
   0.19234756  0.03775870  0.14936887
   0.06802716  0.15177473  0.15097671
   0.31253850  0.19838225  0.04031545
   0.44252304  0.30329101  0.02727166
   0.44154645  0.03765410  0.14907055
   0.31719513  0.15093029  0.14820324
   0.57078048  0.19590824  0.03946792
   0.69078328  0.31478203  0.03979760
   0.69138118  0.03790282  0.14927313
   0.56614476  0.15090371  0.14777792
   0.81708129  0.20359307  0.04335077
   0.94249805  0.31647956  0.04041764
   0.94231463  0.03874968  0.15047618
   0.81650533  0.15144208  0.14984346
   0.06688638  0.53758221  0.02958312
   0.19140168  0.65256274  0.02633429
   0.19610970  0.38754279  0.14804642
   0.06717196  0.49454140  0.13813723
   0.31851646  0.54146016  0.02298571
   0.44218238  0.65322413  0.02184091
   0.44166761  0.36485402  0.13180548
   0.33116543  0.49048761  0.13190944
   0.56526030  0.53975478  0.02618117
   0.69167746  0.65145994  0.02940023
   0.68927851  0.38011933  0.14416781
   0.55738208  0.48621440  0.13381246
   0.81601130  0.53684221  0.03124259
   0.94093342  0.65057658  0.03110142
   0.94263914  0.38016590  0.14395127
   0.81582756  0.49106694  0.13919160
   0.06637928  0.87154950  0.04126005
   0.19067584  0.98447687  0.04277881
   0.19286619  0.69228686  0.13530194
   0.06802304  0.80549164  0.14479566
   0.31626575  0.87289443  0.03998733
   0.44146368  0.98490748  0.04262220
   0.43821873  0.69756797  0.13332151
   0.31398199  0.80878014  0.14443785
   0.56575140  0.87205257  0.04143950
   0.69097175  0.98414115  0.04300506
   0.69120727  0.69568252  0.13752200
   0.56559705  0.80687733  0.14613020
   0.81734961  0.87305110  0.04040356
   0.94284773  0.98548349  0.04407979
   0.94074560  0.69598820  0.13906221
   0.81591019  0.80882671  0.14397300
   0.43503183  0.56805127  0.20623208
   0.33032908  0.61309456  0.27700504
   0.37966174  0.57732143  0.33234609
   0.47110207  0.53044224  0.29793274
   0.24986890  0.65703685  0.28289926
Direct configuration=     2
   0.06983144  0.20708169  0.04493591
   0.19538125  0.31933304  0.04341873
   0.19226706  0.03783470  0.14929102
   0.06793847  0.15182700  0.15091495
   0.31245550  0.19842579  0.04025214
   0.44244445  0.30336133  0.02721072
   0.44149421  0.03773693  0.14900290
   0.31713353  0.15098996  0.14814050
   0.57076584  0.19602078  0.03940264
   0.69071985  0.31492622  0.03982876
   0.69132281  0.03798453  0.14921253
   0.56608854  0.15097024  0.14770816
   0.81700648  0.20373297  0.04333587
   0.94241924  0.31661627  0.04044253
   0.94223209  0.03881330  0.15042042
   0.81643552  0.15151100  0.14982076
   0.06682581  0.53764428  0.02972893
   0.19134062  0.65259668  0.02650019
   0.19602983  0.38743152  0.14806303
   0.06712785  0.49450737  0.13826341
   0.31843739  0.54149572  0.02316634
   0.44208108  0.65329192  0.02200084
   0.44161223  0.36475231  0.13174851
   0.33110169  0.49036697  0.13202074
   0.56519318  0.53985451  0.02620868
   0.69162330  0.65153232  0.02951241
   0.68922688  0.38014171  0.14425921
   0.55728902  0.48612632  0.13378963
   0.81595690  0.53691806  0.03134967
   0.94089000  0.65063443  0.03121229
   0.94256616  0.38016621  0.14401411
   0.81577652  0.49111365  0.13928295
   0.06629233  0.87163405  0.04121909
   0.19059902  0.98455678  0.04269763
   0.19276983  0.69257069  0.13541872
   0.06791714  0.80573369  0.14478911
   0.31620568  0.87297095  0.03995790
   0.44141385  0.98498894  0.04255567
   0.43817484  0.69778419  0.13344412
   0.31391854  0.80902730  0.14444231
   0.56570236  0.87211170  0.04141212
   0.69093646  0.98418922  0.04294277
   0.69111927  0.69579782  0.13762961
   0.56557544  0.80708193  0.14613411
   0.81727444  0.87306770  0.04039603
   0.94273045  0.98554274  0.04402069
   0.94069960  0.69615424  0.13915123
   0.81582881  0.80894828  0.14400373
   0.43513144  0.56809605  0.20631004
   0.33054120  0.61321575  0.27682387
   0.38388610  0.57719852  0.33101133
   0.47232077  0.52900475  0.29728854
   0.25054648  0.65676093  0.28348772
Direct configuration=     3
   0.06985292  0.20706595  0.04494339
   0.19539826  0.31932381  0.04342172
   0.19228179  0.03782080  0.14930526
   0.06795469  0.15181744  0.15092625
   0.31247068  0.19841783  0.04026372
   0.44245883  0.30334847  0.02722187
   0.44150377  0.03772178  0.14901527
   0.31714480  0.15097905  0.14815197
   0.57076852  0.19600020  0.03941458
   0.69073145  0.31489984  0.03982306
   0.69133349  0.03796959  0.14922362
   0.56609882  0.15095807  0.14772092
   0.81702017  0.20370738  0.04333860
   0.94243366  0.31659126  0.04043798
   0.94224719  0.03880166  0.15043062
   0.81644828  0.15149839  0.14982491
   0.06683689  0.53763292  0.02970226
   0.19135179  0.65259047  0.02646985
   0.19604444  0.38745187  0.14805999
   0.06713592  0.49451359  0.13824033
   0.31845186  0.54148921  0.02313330
   0.44209961  0.65327952  0.02197159
   0.44162236  0.36477092  0.13175893
   0.33111335  0.49038903  0.13200039
   0.56520545  0.53983627  0.02620365
   0.69163320  0.65151908  0.02949189
   0.68923633  0.38013762  0.14424249
   0.55730604  0.48614243  0.13379381
   0.81596685  0.53690419  0.03133009
   0.94089794  0.65062385  0.03119201
   0.94257951  0.38016615  0.14400262
   0.81578586  0.49110511  0.13926624
   0.06630823  0.87161859  0.04122658
   0.19061307  0.98454216  0.04271248
   0.19278745  0.69251878  0.13539736
   0.06793651  0.80568941  0.14479031
   0.31621666  0.87295695  0.03996328
   0.44142296  0.98497404  0.04256784
   0.43818287  0.69774464  0.13342169
   0.31393014  0.80898209  0.14444149
   0.56571133  0.87210089  0.04141713
   0.69094291  0.98418043  0.04295417
   0.69113536  0.69577673  0.13760993
   0.56557939  0.80704451  0.14613339
   0.81728819  0.87306466  0.04039741
   0.94275190  0.98553191  0.04403150
   0.94070801  0.69612387  0.13913495
   0.81584369  0.80892604  0.14399811
   0.43511322  0.56808786  0.20629578
   0.33050240  0.61319358  0.27685701
   0.38311342  0.57722100  0.33125547
   0.47209786  0.52926768  0.29740637
   0.25042254  0.65681140  0.28338008
Direct configuration=     4
   0.06986730  0.20705542  0.04494840
   0.19540965  0.31931763  0.04342372
   0.19229165  0.03781149  0.14931479
   0.06796556  0.15181104  0.15093381
   0.31248085  0.19841249  0.04027147
   0.44246845  0.30333986  0.02722933
   0.44151017  0.03771164  0.14902356
   0.31715234  0.15097174  0.14815966
   0.57077031  0.19598641  0.03942257
   0.69073922  0.31488218  0.03981925
   0.69134064  0.03795958  0.14923104
   0.56610571  0.15094992  0.14772946
   0.81702933  0.20369025  0.04334042
   0.94244331  0.31657452  0.04043493
   0.94225730  0.03879387  0.15043745
   0.81645683  0.15148995  0.14982769
   0.06684431  0.53762532  0.02968440
   0.19135927  0.65258631  0.02644953
   0.19605422  0.38746550  0.14805796
   0.06714132  0.49451776  0.13822488
   0.31846154  0.54148486  0.02311118
   0.44211201  0.65327122  0.02195200
   0.44162914  0.36478337  0.13176591
   0.33112115  0.49040381  0.13198676
   0.56521367  0.53982406  0.02620028
   0.69163984  0.65151022  0.02947815
   0.68924265  0.38013488  0.14423130
   0.55731744  0.48615322  0.13379660
   0.81597351  0.53689490  0.03131697
   0.94090326  0.65061677  0.03117843
   0.94258844  0.38016611  0.14399492
   0.81579211  0.49109939  0.13925505
   0.06631888  0.87160823  0.04123160
   0.19062248  0.98453237  0.04272242
   0.19279925  0.69248402  0.13538306
   0.06794948  0.80565977  0.14479111
   0.31622402  0.87294758  0.03996689
   0.44142907  0.98496407  0.04257599
   0.43818825  0.69771816  0.13340668
   0.31393792  0.80895182  0.14444095
   0.56571733  0.87209364  0.04142048
   0.69094723  0.98417454  0.04296179
   0.69114614  0.69576261  0.13759675
   0.56558204  0.80701945  0.14613291
   0.81729739  0.87306263  0.04039833
   0.94276626  0.98552465  0.04403874
   0.94071364  0.69610354  0.13912404
   0.81585366  0.80891116  0.14399435
   0.43510102  0.56808237  0.20628623
   0.33047642  0.61317874  0.27687920
   0.38259606  0.57723605  0.33141894
   0.47194860  0.52944373  0.29748527
   0.25033956  0.65684519  0.28330801
Direct configuration=     5
   0.06990147  0.20703037  0.04496030
   0.19543673  0.31930294  0.04342847
   0.19231508  0.03778937  0.14933745
   0.06799137  0.15179582  0.15095179
   0.31250501  0.19839982  0.04028990
   0.44249133  0.30331939  0.02724707
   0.44152537  0.03768752  0.14904325
   0.31717027  0.15095437  0.14817792
   0.57077457  0.19595366  0.03944158
   0.69075768  0.31484022  0.03981017
   0.69135763  0.03793580  0.14924868
   0.56612207  0.15093056  0.14774977
   0.81705110  0.20364953  0.04334476
   0.94246625  0.31653473  0.04042769
   0.94228132  0.03877535  0.15045368
   0.81647715  0.15146989  0.14983430
   0.06686194  0.53760725  0.02964196
   0.19137704  0.65257644  0.02640124
   0.19607747  0.38749789  0.14805312
   0.06715416  0.49452767  0.13818815
   0.31848455  0.54147451  0.02305860
   0.44214150  0.65325148  0.02190545
   0.44164526  0.36481298  0.13178249
   0.33113970  0.49043893  0.13195436
   0.56523321  0.53979503  0.02619227
   0.69165560  0.65148915  0.02944550
   0.68925768  0.38012836  0.14420469
   0.55734453  0.48617886  0.13380325
   0.81598935  0.53687282  0.03128580
   0.94091590  0.65059992  0.03114616
   0.94260969  0.38016602  0.14397663
   0.81580697  0.49108579  0.13922846
   0.06634419  0.87158362  0.04124352
   0.19064484  0.98450911  0.04274605
   0.19282730  0.69240140  0.13534907
   0.06798031  0.80558932  0.14479302
   0.31624151  0.87292531  0.03997545
   0.44144357  0.98494035  0.04259535
   0.43820102  0.69765522  0.13337099
   0.31395639  0.80887988  0.14443965
   0.56573161  0.87207643  0.04142845
   0.69095751  0.98416055  0.04297992
   0.69117176  0.69572904  0.13756542
   0.56558833  0.80695990  0.14613177
   0.81731927  0.87305780  0.04040052
   0.94280040  0.98550740  0.04405594
   0.94072703  0.69605520  0.13909813
   0.81587735  0.80887577  0.14398540
   0.43507203  0.56806934  0.20626354
   0.33041468  0.61314347  0.27693193
   0.38136643  0.57727183  0.33180746
   0.47159386  0.52986216  0.29767278
   0.25014233  0.65692551  0.28313672
Direct configuration=     6
   0.06988895  0.20703955  0.04495594
   0.19542681  0.31930832  0.04342673
   0.19230650  0.03779747  0.14932915
   0.06798191  0.15180140  0.15094520
   0.31249616  0.19840446  0.04028315
   0.44248295  0.30332689  0.02724057
   0.44151980  0.03769636  0.14903604
   0.31716370  0.15096073  0.14817123
   0.57077301  0.19596566  0.03943462
   0.69075092  0.31485559  0.03981350
   0.69135140  0.03794451  0.14924221
   0.56611608  0.15093765  0.14774233
   0.81704313  0.20366444  0.04334317
   0.94245784  0.31654930  0.04043034
   0.94227252  0.03878214  0.15044773
   0.81646971  0.15147724  0.14983188
   0.06685548  0.53761387  0.02965751
   0.19137053  0.65258005  0.02641893
   0.19606895  0.38748602  0.14805489
   0.06714946  0.49452404  0.13820160
   0.31847612  0.54147830  0.02307786
   0.44213070  0.65325871  0.02192250
   0.44163936  0.36480213  0.13177642
   0.33113291  0.49042606  0.13196623
   0.56522606  0.53980566  0.02619521
   0.69164983  0.65149687  0.02945746
   0.68925217  0.38013075  0.14421444
   0.55733461  0.48616946  0.13380081
   0.81598355  0.53688091  0.03129722
   0.94091127  0.65060609  0.03115798
   0.94260191  0.38016606  0.14398333
   0.81580152  0.49109077  0.13923820
   0.06633492  0.87159263  0.04123915
   0.19063665  0.98451764  0.04273739
   0.19281703  0.69243166  0.13536152
   0.06796901  0.80561512  0.14479232
   0.31623510  0.87293347  0.03997232
   0.44143826  0.98494904  0.04258826
   0.43819634  0.69767828  0.13338406
   0.31394962  0.80890623  0.14444013
   0.56572638  0.87208274  0.04142553
   0.69095374  0.98416568  0.04297328
   0.69116237  0.69574134  0.13757690
   0.56558603  0.80698171  0.14613219
   0.81731126  0.87305957  0.04039972
   0.94278790  0.98551372  0.04404964
   0.94072213  0.69607291  0.13910762
   0.81586867  0.80888873  0.14398868
   0.43508265  0.56807411  0.20627185
   0.33043730  0.61315639  0.27691261
   0.38181687  0.57725872  0.33166514
   0.47172381  0.52970888  0.29760409
   0.25021458  0.65689609  0.28319947
Direct configuration=     7
   0.06989150  0.20703768  0.04495682
   0.19542883  0.31930723  0.04342708
   0.19230824  0.03779582  0.14933084
   0.06798384  0.15180026  0.15094654
   0.31249796  0.19840352  0.04028452
   0.44248465  0.30332536  0.02724189
   0.44152093  0.03769456  0.14903750
   0.31716504  0.15095944  0.14817259
   0.57077333  0.19596322  0.03943603
   0.69075229  0.31485246  0.03981282
   0.69135267  0.03794274  0.14924353
   0.56611730  0.15093621  0.14774384
   0.81704475  0.20366141  0.04334349
   0.94245955  0.31654634  0.04042980
   0.94227431  0.03878076  0.15044894
   0.81647122  0.15147574  0.14983237
   0.06685680  0.53761253  0.02965435
   0.19137186  0.65257932  0.02641533
   0.19607068  0.38748843  0.14805453
   0.06715041  0.49452478  0.13819887
   0.31847784  0.54147753  0.02307395
   0.44213289  0.65325724  0.02191904
   0.44164056  0.36480434  0.13177765
   0.33113429  0.49042868  0.13196381
   0.56522751  0.53980350  0.02619461
   0.69165100  0.65149530  0.02945503
   0.68925329  0.38013026  0.14421246
   0.55733662  0.48617137  0.13380131
   0.81598473  0.53687926  0.03129490
   0.94091221  0.65060484  0.03115558
   0.94260349  0.38016605  0.14398197
   0.81580263  0.49108976  0.13923623
   0.06633680  0.87159080  0.04124004
   0.19063831  0.98451590  0.04273915
   0.19281911  0.69242551  0.13535899
   0.06797131  0.80560988  0.14479246
   0.31623640  0.87293181  0.03997295
   0.44143934  0.98494727  0.04258970
   0.43819729  0.69767359  0.13338141
   0.31395100  0.80890088  0.14444003
   0.56572744  0.87208146  0.04142613
   0.69095451  0.98416463  0.04297463
   0.69116428  0.69573884  0.13757457
   0.56558649  0.80697728  0.14613211
   0.81731289  0.87305921  0.04039988
   0.94279044  0.98551244  0.04405092
   0.94072313  0.69606931  0.13910569
   0.81587043  0.80888610  0.14398801
   0.43508049  0.56807314  0.20627016
   0.33043270  0.61315376  0.27691654
   0.38172531  0.57726139  0.33169407
   0.47169740  0.52974003  0.29761805
   0.25019989  0.65690207  0.28318671
Direct configuration=     8
   0.06977888  0.20712169  0.04491614
   0.19533921  0.31935485  0.04340797
   0.19223243  0.03786628  0.14925537
   0.06789789  0.15185137  0.15088808
   0.31242043  0.19844741  0.04022283
   0.44241099  0.30339162  0.02717830
   0.44146941  0.03777555  0.14897404
   0.31710243  0.15101577  0.14811194
   0.57075546  0.19606906  0.03937260
   0.69069503  0.31499134  0.03984820
   0.69129438  0.03802006  0.14918514
   0.56606388  0.15100075  0.14767586
   0.81697593  0.20379743  0.04332860
   0.94238314  0.31667726  0.04045372
   0.94219470  0.03884194  0.15039514
   0.81640362  0.15154485  0.14980805
   0.06679808  0.53766978  0.02979460
   0.19131500  0.65261008  0.02657790
   0.19599587  0.38738070  0.14807455
   0.06710642  0.49449197  0.13831837
   0.31841011  0.54151378  0.02324150
   0.44203708  0.65331972  0.02206951
   0.44157771  0.36471826  0.13173034
   0.33108637  0.49033578  0.13209321
   0.56515902  0.53989913  0.02621733
   0.69159817  0.65156533  0.02956377
   0.68921634  0.38013884  0.14429466
   0.55724104  0.48611545  0.13378154
   0.81593137  0.53695153  0.03139704
   0.94086621  0.65066215  0.03126583
   0.94252904  0.38016579  0.14404410
   0.81575116  0.49113192  0.13932303
   0.06625347  0.87167448  0.04119911
   0.19056562  0.98459390  0.04266098
   0.19272494  0.69270283  0.13546667
   0.06787128  0.80584484  0.14478596
   0.31617966  0.87300821  0.03994255
   0.44139038  0.98502482  0.04252563
   0.43813256  0.69787700  0.13349829
   0.31388816  0.80915113  0.14444451
   0.56567704  0.87213974  0.04139573
   0.69091725  0.98421329  0.04291569
   0.69108007  0.69584965  0.13767890
   0.56556326  0.80717504  0.14613861
   0.81724191  0.87307361  0.04039160
   0.94267705  0.98556979  0.04399406
   0.94067784  0.69623120  0.13919239
   0.81579147  0.80900516  0.14401676
   0.43522942  0.56807736  0.20598957
   0.33122777  0.61290944  0.27657102
   0.38507586  0.57769987  0.33100234
   0.47321587  0.52800099  0.29678292
   0.25061589  0.65677559  0.28389517
Direct configuration=     9
   0.06981205  0.20709695  0.04492812
   0.19536561  0.31934083  0.04341360
   0.19225476  0.03784553  0.14927760
   0.06792320  0.15183632  0.15090530
   0.31244326  0.19843448  0.04024100
   0.44243269  0.30337211  0.02719703
   0.44148459  0.03775169  0.14899273
   0.31712087  0.15099918  0.14812981
   0.57076073  0.19603788  0.03939128
   0.69071190  0.31495043  0.03983778
   0.69131155  0.03799729  0.14920234
   0.56607961  0.15098174  0.14769589
   0.81699620  0.20375737  0.04333299
   0.94240565  0.31663870  0.04044668
   0.94221815  0.03882392  0.15041099
   0.81642354  0.15152450  0.14981522
   0.06681538  0.53765291  0.02975329
   0.19133175  0.65260102  0.02653002
   0.19601790  0.38741243  0.14806865
   0.06711938  0.49450163  0.13828317
   0.31843006  0.54150310  0.02319215
   0.44206530  0.65330132  0.02202519
   0.44159622  0.36474361  0.13174428
   0.33110048  0.49036314  0.13205510
   0.56517919  0.53987096  0.02621064
   0.69161373  0.65154471  0.02953174
   0.68922723  0.38013632  0.14427045
   0.55726919  0.48613192  0.13378736
   0.81594708  0.53693024  0.03136695
   0.94087976  0.65064527  0.03123336
   0.94255097  0.38016587  0.14402580
   0.81576632  0.49111950  0.13929746
   0.06627801  0.87164983  0.04121117
   0.19058703  0.98457092  0.04268400
   0.19275268  0.69262115  0.13543495
   0.06790074  0.80577563  0.14478788
   0.31619637  0.87298570  0.03995151
   0.44140480  0.98500198  0.04254450
   0.43815163  0.69781709  0.13346386
   0.31390667  0.80907742  0.14444319
   0.56569188  0.87212257  0.04140468
   0.69092822  0.98419896  0.04293305
   0.69110487  0.69581701  0.13764817
   0.56557010  0.80711679  0.14613669
   0.81726281  0.87306937  0.04039404
   0.94271045  0.98555289  0.04401081
   0.94069118  0.69618352  0.13916686
   0.81581473  0.80897009  0.14400830
   0.43518556  0.56807612  0.20607222
   0.33099359  0.61298140  0.27667279
   0.38408898  0.57757072  0.33120609
   0.47276861  0.52851322  0.29702890
   0.25049336  0.65681284  0.28368650
Direct configuration=    10
   0.06968787  0.20718952  0.04488367
   0.19527082  0.31939484  0.04338999
   0.19217124  0.03792143  0.14919438
   0.06782867  0.15189256  0.15084189
   0.31236009  0.19848252  0.04017407
   0.44235355  0.30344382  0.02712591
   0.44142749  0.03783965  0.14892218
   0.31705134  0.15106004  0.14806311
   0.57073966  0.19615316  0.03932245
   0.69065101  0.31510402  0.03987941
   0.69124858  0.03808179  0.14913688
   0.56602143  0.15105219  0.14762001
   0.81692265  0.20390649  0.04331542
   0.94232102  0.31678306  0.04047335
   0.94212977  0.03889149  0.15035178
   0.81634914  0.15160108  0.14978670
   0.06675182  0.53771637  0.02990786
   0.19127007  0.65263456  0.02670850
   0.19593455  0.38729540  0.14809660
   0.06707257  0.49446556  0.13841347
   0.31835932  0.54154444  0.02337125
   0.44195965  0.65337010  0.02218651
   0.44152375  0.36464599  0.13169491
   0.33103846  0.49027386  0.13218310
   0.56510305  0.53997507  0.02623279
   0.69155565  0.65162231  0.02965346
   0.68919154  0.38014161  0.14435913
   0.55717876  0.48607498  0.13374647
   0.81588921  0.53700948  0.03147902
   0.94082908  0.65070737  0.03135477
   0.94246765  0.38016443  0.14409520
   0.81571036  0.49116553  0.13939261
   0.06618484  0.87174217  0.04116496
   0.19050723  0.98465817  0.04259829
   0.19264987  0.69292502  0.13555778
   0.06779229  0.80603678  0.14478076
   0.31613542  0.87306844  0.03991693
   0.44135170  0.98508641  0.04247547
   0.43806476  0.69806468  0.13356623
   0.31383190  0.80936100  0.14445070
   0.56563513  0.87218810  0.04136965
   0.69088500  0.98425384  0.04287110
   0.69101296  0.69593892  0.13776274
   0.56554512  0.80733166  0.14614485
   0.81718536  0.87308495  0.04038449
   0.94258553  0.98561577  0.04394843
   0.94064242  0.69636152  0.13926170
   0.81572936  0.80910176  0.14403914
   0.43540972  0.56799070  0.20563476
   0.33170034  0.61280926  0.27638791
   0.38745479  0.57824571  0.33061771
   0.47441714  0.52659200  0.29604728
   0.25139786  0.65644425  0.28445004
Direct configuration=    11
   0.06958700  0.20726472  0.04484756
   0.19519384  0.31943871  0.04337082
   0.19210341  0.03798308  0.14912679
   0.06775189  0.15193824  0.15079038
   0.31229252  0.19852154  0.04011971
   0.44228928  0.30350206  0.02706815
   0.44138111  0.03791109  0.14886487
   0.31699486  0.15110948  0.14800894
   0.57072255  0.19624679  0.03926654
   0.69060155  0.31522878  0.03991322
   0.69119743  0.03815042  0.14908371
   0.56597417  0.15110941  0.14755838
   0.81686291  0.20402761  0.04330115
   0.94225228  0.31690032  0.04049502
   0.94205798  0.03894637  0.15030369
   0.81628872  0.15166328  0.14976354
   0.06670019  0.53776792  0.03003340
   0.19121997  0.65266179  0.02685347
   0.19586685  0.38720034  0.14811930
   0.06703455  0.49443627  0.13851930
   0.31830186  0.54157802  0.02351672
   0.44187384  0.65342596  0.02231754
   0.44146489  0.36456669  0.13165481
   0.33098809  0.49020134  0.13228706
   0.56504120  0.54005963  0.02625078
   0.69150846  0.65168535  0.02975232
   0.68916255  0.38014590  0.14443116
   0.55710530  0.48602873  0.13371326
   0.81584221  0.53707385  0.03157005
   0.94078792  0.65075781  0.03145338
   0.94239998  0.38016327  0.14415158
   0.81566491  0.49120291  0.13946990
   0.06610916  0.87181718  0.04112742
   0.19044240  0.98472904  0.04252867
   0.19256636  0.69317183  0.13565754
   0.06770421  0.80624888  0.14477497
   0.31608591  0.87313564  0.03988884
   0.44130858  0.98515498  0.04241941
   0.43799420  0.69826579  0.13364937
   0.31377117  0.80959133  0.14445680
   0.56558904  0.87224132  0.04134119
   0.69084990  0.98429842  0.04282078
   0.69093830  0.69603795  0.13785581
   0.56552483  0.80750619  0.14615147
   0.81712245  0.87309761  0.04037673
   0.94248406  0.98566685  0.04389776
   0.94060282  0.69650610  0.13933873
   0.81566002  0.80920871  0.14406419
   0.43559180  0.56792132  0.20527945
   0.33227439  0.61266944  0.27615651
   0.39018860  0.57879396  0.33013981
   0.47575612  0.52503152  0.29524998
   0.25213252  0.65614488  0.28507021
Direct configuration=    12
   0.06943756  0.20737905  0.04479483
   0.19509071  0.31950870  0.04333851
   0.19200367  0.03807226  0.14902606
   0.06763747  0.15200546  0.15071390
   0.31219621  0.19857940  0.04004055
   0.44219447  0.30358399  0.02698057
   0.44131011  0.03801685  0.14877943
   0.31690889  0.15118436  0.14792733
   0.57069150  0.19638082  0.03918680
   0.69052942  0.31541709  0.03996855
   0.69112303  0.03824735  0.14900422
   0.56590456  0.15119674  0.14746417
   0.81677572  0.20420730  0.04327767
   0.94214939  0.31707665  0.04052924
   0.94195018  0.03902871  0.15023065
   0.81619807  0.15176020  0.14972454
   0.06662469  0.53784358  0.03022233
   0.19115161  0.65269956  0.02707437
   0.19576113  0.38706648  0.14816797
   0.06697787  0.49439005  0.13867739
   0.31822141  0.54162726  0.02371545
   0.44174877  0.65351173  0.02248906
   0.44137430  0.36444245  0.13159868
   0.33087660  0.49010535  0.13238009
   0.56494747  0.54018561  0.02626532
   0.69143644  0.65177938  0.02990236
   0.68912503  0.38014521  0.14453772
   0.55703672  0.48596052  0.13360188
   0.81577217  0.53716908  0.03170404
   0.94072805  0.65083173  0.03160216
   0.94229533  0.38016231  0.14423890
   0.81559727  0.49125701  0.13958565
   0.06599386  0.87192994  0.04106875
   0.19034725  0.98483993  0.04242789
   0.19244308  0.69353744  0.13581148
   0.06757389  0.80656887  0.14476418
   0.31601407  0.87323514  0.03984360
   0.44124507  0.98525554  0.04233938
   0.43786552  0.69862037  0.13369550
   0.31366539  0.80995071  0.14447180
   0.56551672  0.87232019  0.04129609
   0.69079363  0.98436887  0.04274967
   0.69082886  0.69618423  0.13799386
   0.56549394  0.80776779  0.14616306
   0.81703100  0.87311595  0.04036414
   0.94233197  0.98574430  0.04382170
   0.94054459  0.69672181  0.13945362
   0.81555493  0.80937100  0.14410024
   0.43596928  0.56761114  0.20460087
   0.33343400  0.61233432  0.27601521
   0.39373683  0.57987430  0.32967046
   0.47750161  0.52287393  0.29397488
   0.25361705  0.65552475  0.28600037
Direct configuration=    13
   0.06935282  0.20744390  0.04476492
   0.19503223  0.31954839  0.04332020
   0.19194710  0.03812284  0.14896894
   0.06757258  0.15204359  0.15067053
   0.31214158  0.19861221  0.03999566
   0.44214070  0.30363046  0.02693090
   0.44126985  0.03807683  0.14873098
   0.31686014  0.15122683  0.14788105
   0.57067389  0.19645684  0.03914158
   0.69048852  0.31552388  0.03999994
   0.69108084  0.03830232  0.14895914
   0.56586508  0.15124627  0.14741074
   0.81672627  0.20430921  0.04326436
   0.94209104  0.31717666  0.04054864
   0.94188904  0.03907541  0.15018922
   0.81614666  0.15181516  0.14970242
   0.06658187  0.53788649  0.03032947
   0.19111284  0.65272098  0.02719965
   0.19570117  0.38699057  0.14819557
   0.06694573  0.49436383  0.13876705
   0.31817579  0.54165518  0.02382816
   0.44167784  0.65356036  0.02258632
   0.44132292  0.36437198  0.13156684
   0.33081337  0.49005092  0.13243285
   0.56489431  0.54025706  0.02627357
   0.69139560  0.65183271  0.02998745
   0.68910375  0.38014481  0.14459815
   0.55699782  0.48592183  0.13353871
   0.81573245  0.53722309  0.03178003
   0.94069409  0.65087364  0.03168654
   0.94223598  0.38016177  0.14428842
   0.81555890  0.49128769  0.13965129
   0.06592847  0.87199389  0.04103547
   0.19029328  0.98490282  0.04237074
   0.19237317  0.69374478  0.13589878
   0.06749998  0.80675035  0.14475806
   0.31597332  0.87329156  0.03981795
   0.44120905  0.98531257  0.04229400
   0.43779255  0.69882147  0.13372165
   0.31360540  0.81015452  0.14448031
   0.56547571  0.87236491  0.04127052
   0.69076172  0.98440883  0.04270934
   0.69076679  0.69626719  0.13807215
   0.56547643  0.80791614  0.14616963
   0.81697914  0.87312634  0.04035699
   0.94224572  0.98578823  0.04377856
   0.94051157  0.69684415  0.13951877
   0.81549533  0.80946305  0.14412069
   0.43618336  0.56743523  0.20421604
   0.33409164  0.61214426  0.27593508
   0.39574910  0.58048698  0.32940429
   0.47849151  0.52165032  0.29325175
   0.25445896  0.65517307  0.28652788
Direct configuration=    14
   0.06920008  0.20756611  0.04471254
   0.19494199  0.31962703  0.04328421
   0.19184240  0.03821467  0.14886178
   0.06745343  0.15211144  0.15059151
   0.31204443  0.19867142  0.03991499
   0.44203982  0.30370478  0.02683552
   0.44119292  0.03818557  0.14864237
   0.31676493  0.15130700  0.14779347
   0.57063444  0.19659128  0.03906077
   0.69041507  0.31572487  0.04006331
   0.69100370  0.03839680  0.14887607
   0.56579280  0.15133882  0.14730586
   0.81663614  0.20449690  0.04323719
   0.94198517  0.31736291  0.04058686
   0.94177380  0.03916232  0.15011051
   0.81605175  0.15192139  0.14965639
   0.06650373  0.53796419  0.03052950
   0.19105139  0.65275663  0.02743116
   0.19558260  0.38686804  0.14826534
   0.06688213  0.49431254  0.13893002
   0.31809108  0.54170386  0.02399779
   0.44155004  0.65365462  0.02271268
   0.44122683  0.36423239  0.13150586
   0.33062710  0.48993621  0.13240241
   0.56479977  0.54039053  0.02625629
   0.69131541  0.65192905  0.03014576
   0.68906512  0.38014215  0.14470696
   0.55700723  0.48581252  0.13330795
   0.81565968  0.53732586  0.03191808
   0.94063054  0.65095133  0.03184342
   0.94212145  0.38016098  0.14438228
   0.81548970  0.49133962  0.13977211
   0.06580444  0.87211302  0.04096986
   0.19019494  0.98502310  0.04227043
   0.19224366  0.69412348  0.13607057
   0.06736482  0.80709087  0.14474535
   0.31589743  0.87339913  0.03976479
   0.44114185  0.98541646  0.04221369
   0.43765045  0.69924914  0.13365614
   0.31346729  0.81054603  0.14450642
   0.56539843  0.87244935  0.04122172
   0.69069625  0.98448962  0.04263852
   0.69065399  0.69641918  0.13821799
   0.56544055  0.80819416  0.14617928
   0.81688385  0.87314496  0.04034227
   0.94208326  0.98587200  0.04369919
   0.94045173  0.69707070  0.13963836
   0.81538191  0.80963704  0.14415619
   0.43667261  0.56688701  0.20350700
   0.33598352  0.61153196  0.27607891
   0.39898233  0.58169500  0.32905566
   0.47983418  0.51984845  0.29192329
   0.25624601  0.65444460  0.28751528
Direct configuration=    15
   0.06910796  0.20763982  0.04468095
   0.19488756  0.31967445  0.04326250
   0.19177925  0.03827006  0.14879716
   0.06738156  0.15215237  0.15054386
   0.31198583  0.19870713  0.03986634
   0.44197898  0.30374961  0.02677800
   0.44114653  0.03825115  0.14858892
   0.31670750  0.15135535  0.14774064
   0.57061065  0.19667236  0.03901204
   0.69037077  0.31584609  0.04010154
   0.69095718  0.03845378  0.14882597
   0.56574921  0.15139464  0.14724261
   0.81658178  0.20461009  0.04322081
   0.94192132  0.31747524  0.04060990
   0.94170429  0.03921473  0.15006303
   0.81599450  0.15198545  0.14962863
   0.06645659  0.53801106  0.03065014
   0.19101433  0.65277813  0.02757078
   0.19551109  0.38679414  0.14830741
   0.06684377  0.49428160  0.13902831
   0.31803999  0.54173322  0.02410010
   0.44147296  0.65371147  0.02278889
   0.44116887  0.36414821  0.13146909
   0.33051476  0.48986703  0.13238405
   0.56474275  0.54047103  0.02624587
   0.69126705  0.65198715  0.03024124
   0.68904182  0.38014055  0.14477259
   0.55701290  0.48574660  0.13316877
   0.81561578  0.53738783  0.03200134
   0.94059221  0.65099818  0.03193803
   0.94205237  0.38016051  0.14443888