       N       E                     dE             d eps       ncg     rms          rms(c)
RMM:   1     0.416977725613E+04    0.41698E+04   -0.74085E+04  9216   0.835E+02
RMM:   2     0.149821141450E+04   -0.26716E+04   -0.31783E+04  9216   0.214E+02
RMM:   3     0.657890136422E+03   -0.84032E+03   -0.14824E+04  9216   0.171E+02
RMM:   4    -0.105774306031E+03   -0.76366E+03   -0.75479E+03  9216   0.150E+02
RMM:   5    -0.475899454973E+03   -0.37013E+03   -0.31721E+03  9216   0.104E+02
RMM:   6    -0.627967687225E+03   -0.15207E+03   -0.12356E+03  9216   0.803E+01
RMM:   7    -0.669676021272E+03   -0.41708E+02   -0.36122E+02  9216   0.473E+01
RMM:   8    -0.688825908220E+03   -0.19150E+02   -0.12976E+02  9216   0.378E+01
RMM:   9    -0.696294695934E+03   -0.74688E+01   -0.61603E+01  9216   0.196E+01
RMM:  10    -0.699455693024E+03   -0.31610E+01   -0.23324E+01  9216   0.174E+01
RMM:  11    -0.701317379917E+03   -0.18617E+01   -0.15701E+01  9216   0.787E+00
RMM:  12    -0.701967503995E+03   -0.65012E+00   -0.48834E+00  9216   0.748E+00
RMM:  13    -0.702369928465E+03   -0.40242E+00   -0.34315E+00  9216   0.308E+00
RMM:  14    -0.702512496902E+03   -0.14257E+00   -0.11043E+00  9216   0.304E+00
RMM:  15    -0.702682832232E+03   -0.17034E+00   -0.15867E+00 25117   0.128E+00
RMM:  16    -0.702695408838E+03   -0.12577E-01   -0.83944E-02 24188   0.263E-01
RMM:  17    -0.702696850930E+03   -0.14421E-02   -0.10835E-02 22907   0.101E-01
RMM:  18    -0.702697093400E+03   -0.24247E-03   -0.22376E-03 19388   0.467E-02
RMM:  19    -0.702697145673E+03   -0.52273E-04   -0.48173E-04 15706   0.227E-02
RMM:  20    -0.702697157816E+03   -0.12143E-04   -0.11486E-04 13761   0.131E-02    0.559E+01
RMM:  21    -0.700932532541E+03    0.17646E+01   -0.20741E+02 32576   0.390E+01    0.968E+01
RMM:  22    -0.687193282233E+03    0.13739E+02   -0.52020E+01 32572   0.124E+01    0.657E+01
RMM:  23    -0.655949857215E+03    0.31243E+02   -0.46256E+01 32578   0.115E+01    0.244E+01
RMM:  24    -0.650879917750E+03    0.50699E+01   -0.92575E+00 32548   0.529E+00    0.181E+01
RMM:  25    -0.647374225004E+03    0.35057E+01   -0.11537E+01 32548   0.586E+00    0.124E+01
RMM:  26    -0.647574205385E+03   -0.19998E+00   -0.42945E+00 32554   0.395E+00    0.104E+01
RMM:  27    -0.647699520978E+03   -0.12532E+00   -0.21751E-01 32596   0.776E-01    0.841E+00
RMM:  28    -0.647390673507E+03    0.30885E+00   -0.24321E-01 32592   0.956E-01    0.567E+00
RMM:  29    -0.647265552639E+03    0.12512E+00   -0.68290E-02 32341   0.478E-01    0.419E+00
RMM:  30    -0.647114455652E+03    0.15110E+00   -0.23153E-01 32548   0.806E-01    0.131E+00
RMM:  31    -0.647114585166E+03   -0.12951E-03   -0.78299E-03 26643   0.121E-01    0.102E+00
RMM:  32    -0.647108111792E+03    0.64734E-02   -0.69127E-03 24473   0.116E-01    0.601E-01
RMM:  33    -0.647105740532E+03    0.23713E-02   -0.52237E-03 24194   0.102E-01    0.293E-01
RMM:  34    -0.647105637460E+03    0.10307E-03   -0.85084E-04 21243   0.432E-02    0.171E-01
RMM:  35    -0.647105621919E+03    0.15541E-04   -0.19654E-04 19341   0.267E-02    0.100E-01
RMM:  36    -0.647105643908E+03   -0.21990E-04   -0.68690E-05 15086   0.183E-02    0.354E-02
RMM:  37    -0.647105648584E+03   -0.46760E-05   -0.21935E-05 12015   0.118E-02
   1 F= -.64961970E+03 E0= -.64961906E+03  d E =-.649620E+03  mag=     0.0002
