 vasp.6.4.1 05Apr23 (build Apr 10 2023 21:44:22) complex                        
  
 executed on             LinuxIFC date 2023.06.28  12:13:26
 running   32 mpi-ranks, on    1 nodes
 distrk:  each k-point on   32 cores,    1 groups
 distr:  one band on NCORE=   4 cores,    8 groups


--------------------------------------------------------------------------------------------------------


 INCAR:
   NCORE = 8
   NPAR = 8
   SYSTEM = KAIST-INCAR
   LWAVE = .FALSE.
   LCHARG = .FALSE.
   LVTOT = .FALSE.
   ISTART = 1
   SIGMA = 0.05
   ICHARG = 2
   IBRION = 2
   POTIM = 0.2
   ISIF = 2
   NSW = 4000
   NELM = 4000
   NELMIN = 6
   ISYM = 0
   ISPIN = 2
   IDIPOL = 3
   LMAXMIX = 4
   ADDGRID = .TRUE.
   ALGO = VeryFast
   NELMDL = -20
   ISMEAR = 0
   AMIX = 0.2
   BMIX = 0.00001
   AMIX_MAG = 0.8
   BMIX_MAG = 0.00001
   LREAL = Auto
   PREC = Accurate
   EDIFF = 1E-05
   EDIFFG = -0.02
   ENCUT = 400.0
   GGA = PE
   IVDW = 11
   LORBIT = 11
   MAGMOM = 66*0.0 4*0.0 1*5.0

 POTCAR:    PAW_PBE C 08Apr2002                   
 POTCAR:    PAW_PBE N 08Apr2002                   
 POTCAR:    PAW_PBE Ni 02Aug2007                  
 -----------------------------------------------------------------------------
|                                                                             |
|           W    W    AA    RRRRR   N    N  II  N    N   GGGG   !!!           |
|           W    W   A  A   R    R  NN   N  II  NN   N  G    G  !!!           |
|           W    W  A    A  R    R  N N  N  II  N N  N  G       !!!           |
|           W WW W  AAAAAA  RRRRR   N  N N  II  N  N N  G  GGG   !            |
|           WW  WW  A    A  R   R   N   NN  II  N   NN  G    G                |
|           W    W  A    A  R    R  N    N  II  N    N   GGGG   !!!           |
|                                                                             |
|     The value NCORE = 8 specified in the INCAR file was overwritten,        |
|     because it was not compatible with the 32 processes available:          |
|     NCORE = 4                                                               |
|     was used instead, please check that this makes sense for your           |
|     machine.                                                                |
|                                                                             |
 -----------------------------------------------------------------------------

 POTCAR:    PAW_PBE C 08Apr2002                   
   SHA256 =  253f7b50bb8d59471dbedb8285d89021f4a42ed1a2c5d38a03a736e69125dd95 C/POTCAR              
   COPYR  = (c) Copyright 08Apr2002 Georg Kresse                                                    
   COPYR  = This file is part of the software VASP. Any use, copying, and all other rights are regul
   COPYR  = If you do not have a valid VASP license, you may not use, copy or distribute this file. 
   VRHFIN =C: s2p2                                                                                  
   LEXCH  = PE                                                                                      
   EATOM  =   147.1560 eV,   10.8157 Ry                                                             
                                                                                                    
   TITEL  = PAW_PBE C 08Apr2002                                                                     
   LULTRA =        F    use ultrasoft PP ?                                                          
   IUNSCR =        1    unscreen: 0-lin 1-nonlin 2-no                                               
   RPACOR =    1.200    partial core radius                                                         
   POMASS =   12.011; ZVAL   =    4.000    mass and valenz                                          
   RCORE  =    1.500    outmost cutoff radius                                                       
   RWIGS  =    1.630; RWIGS  =    0.863    wigner-seitz radius (au A)                               
   ENMAX  =  400.000; ENMIN  =  300.000 eV                                                          
   ICORE  =        2    local potential                                                             
   LCOR   =        T    correct aug charges                                                         
   LPAW   =        T    paw PP                                                                      
   EAUG   =  644.873                                                                                
   DEXC   =    0.000                                                                                
   RMAX   =    1.529    core radius for proj-oper                                                   
   RAUG   =    1.300    factor for augmentation sphere                                              
   RDEP   =    1.501    radius for radial grids                                                     
   RDEPT  =    1.300    core radius for aug-charge                                                  
                                                                                                    
   Atomic configuration                                                                             
    4 entries                                                                                       
     n  l   j            E        occ.                                                              
     1  0  0.50      -273.3789   2.0000                                                             
     2  0  0.50       -13.7508   2.0000                                                             
     2  1  0.50        -5.2854   2.0000                                                             
     3  2  1.50        -5.4423   0.0000                                                             
   Description                                                                                      
     l       E           TYP  RCUT    TYP  RCUT                                                     
     0    -13.7508458     23  1.200                                                                 
     0     -8.2022199     23  1.200                                                                 
     1     -5.2854383     23  1.500                                                                 
     1     34.0145650     23  1.500                                                                 
     2     -5.4423304      7  1.500                                                                 
  local pseudopotential read in
  partial core-charges read in
  partial kinetic energy density read in
  atomic valenz-charges read in
  non local Contribution for L=           0  read in
    real space projection operators read in
  non local Contribution for L=           0  read in
    real space projection operators read in
  non local Contribution for L=           1  read in
    real space projection operators read in
  non local Contribution for L=           1  read in
    real space projection operators read in
    PAW grid and wavefunctions read in
 
   number of l-projection  operators is LMAX  =           4
   number of lm-projection operators is LMMAX =           8
 
 POTCAR:    PAW_PBE N 08Apr2002                   
   SHA256 =  e053789ff3a61a86a1b75d8a110fcc91f86041011e7b0817c7c99e4e8a6349d7 N/POTCAR              
   COPYR  = (c) Copyright 08Apr2002 Georg Kresse                                                    
   COPYR  = This file is part of the software VASP. Any use, copying, and all other rights are regul
   COPYR  = If you do not have a valid VASP license, you may not use, copy or distribute this file. 
   VRHFIN =N: s2p3                                                                                  
   LEXCH  = PE                                                                                      
   EATOM  =   264.5486 eV,   19.4438 Ry                                                             
                                                                                                    
   TITEL  = PAW_PBE N 08Apr2002                                                                     
   LULTRA =        F    use ultrasoft PP ?                                                          
   IUNSCR =        1    unscreen: 0-lin 1-nonlin 2-no                                               
   RPACOR =    1.200    partial core radius                                                         
   POMASS =   14.001; ZVAL   =    5.000    mass and valenz                                          
   RCORE  =    1.500    outmost cutoff radius                                                       
   RWIGS  =    1.400; RWIGS  =    0.741    wigner-seitz radius (au A)                               
   ENMAX  =  400.000; ENMIN  =  300.000 eV                                                          
   ICORE  =        2    local potential                                                             
   LCOR   =        T    correct aug charges                                                         
   LPAW   =        T    paw PP                                                                      
   EAUG   =  627.112                                                                                
   DEXC   =    0.000                                                                                
   RMAX   =    1.529    core radius for proj-oper                                                   
   RAUG   =    1.300    factor for augmentation sphere                                              
   RDEP   =    1.514    radius for radial grids                                                     
   RDEPT  =    1.338    core radius for aug-charge                                                  
                                                                                                    
   Atomic configuration                                                                             
    4 entries                                                                                       
     n  l   j            E        occ.                                                              
     1  0  0.50      -384.7179   2.0000                                                             
     2  0  0.50       -18.5828   2.0000                                                             
     2  1  0.50        -7.0898   3.0000                                                             
     3  2  1.50        -6.8029   0.0000                                                             
   Description                                                                                      
     l       E           TYP  RCUT    TYP  RCUT                                                     
     0    -18.5828119     23  1.200                                                                 
     0    -13.5018863     23  1.200                                                                 
     1     -7.0897853     23  1.500                                                                 
     1      9.5240782     23  1.500                                                                 
     2     -6.8029130      7  1.500                                                                 
  local pseudopotential read in
  partial core-charges read in
  partial kinetic energy density read in
  atomic valenz-charges read in
  non local Contribution for L=           0  read in
    real space projection operators read in
  non local Contribution for L=           0  read in
    real space projection operators read in
  non local Contribution for L=           1  read in
    real space projection operators read in
  non local Contribution for L=           1  read in
    real space projection operators read in
    PAW grid and wavefunctions read in
 
   number of l-projection  operators is LMAX  =           4
   number of lm-projection operators is LMMAX =           8
 
 POTCAR:    PAW_PBE Ni 02Aug2007                  
   SHA256 =  0534bc51ca8003dfef23f56753fef9fdd3e22eac8d719fccacb59f3e6b7a69c7 Ni/POTCAR             
   COPYR  = (c) Copyright 02Aug2007 Georg Kresse                                                    
   COPYR  = This file is part of the software VASP. Any use, copying, and all other rights are regul
   COPYR  = If you do not have a valid VASP license, you may not use, copy or distribute this file. 
   VRHFIN =Ni:                                                                                      
   LEXCH  = PE                                                                                      
   EATOM  =  1077.6739 eV,   79.2068 Ry                                                             
                                                                                                    
   TITEL  = PAW_PBE Ni 02Aug2007                                                                    
   LULTRA =        F    use ultrasoft PP ?                                                          
   IUNSCR =        1    unscreen: 0-lin 1-nonlin 2-no                                               
   RPACOR =    2.000    partial core radius                                                         
   POMASS =   58.690; ZVAL   =   10.000    mass and valenz                                          
   RCORE  =    2.300    outmost cutoff radius                                                       
   RWIGS  =    2.430; RWIGS  =    1.286    wigner-seitz radius (au A)                               
   ENMAX  =  269.532; ENMIN  =  202.149 eV                                                          
   RCLOC  =    1.201    cutoff for local pot                                                        
   LCOR   =        T    correct aug charges                                                         
   LPAW   =        T    paw PP                                                                      
   EAUG   =  544.565                                                                                
   DEXC   =    0.000                                                                                
   RMAX   =    2.357    core radius for proj-oper                                                   
   RAUG   =    1.300    factor for augmentation sphere                                              
   RDEP   =    2.390    radius for radial grids                                                     
   RDEPT  =    1.838    core radius for aug-charge                                                  
                                                                                                    
   Atomic configuration                                                                             
    9 entries                                                                                       
     n  l   j            E        occ.                                                              
     1  0  0.50     -8206.4253   2.0000                                                             
     2  0  0.50      -976.1748   2.0000                                                             
     2  1  1.50      -839.0571   6.0000                                                             
     3  0  0.50      -105.9991   2.0000                                                             
     3  1  1.50       -66.4603   6.0000                                                             
     3  2  2.50        -4.6458   9.0000                                                             
     4  0  0.50        -4.4926   1.0000                                                             
     4  1  1.50        -4.0817   0.0000                                                             
     4  3  2.50        -1.3606   0.0000                                                             
   Description                                                                                      
     l       E           TYP  RCUT    TYP  RCUT                                                     
     2     -4.6457903     23  2.300                                                                 
     2     -6.0063729     23  2.300                                                                 
     0     -4.4925590     23  2.300                                                                 
     0      5.0102601     23  2.300                                                                 
     1     -2.7211652     23  2.300                                                                 
     1     16.5183231     23  2.300                                                                 
  local pseudopotential read in
  partial core-charges read in
  partial kinetic energy density read in
  atomic valenz-charges read in
  non local Contribution for L=           2  read in
    real space projection operators read in
  non local Contribution for L=           2  read in
    real space projection operators read in
  non local Contribution for L=           0  read in
    real space projection operators read in
  non local Contribution for L=           0  read in
    real space projection operators read in
  non local Contribution for L=           1  read in
    real space projection operators read in
  non local Contribution for L=           1  read in
    real space projection operators read in
    PAW grid and wavefunctions read in
 
   number of l-projection  operators is LMAX  =           6
   number of lm-projection operators is LMMAX =          18
 
 Optimization of the real space projectors (new method)

 maximal supplied QI-value         = 25.13
 optimisation between [QCUT,QGAM] = [ 10.05, 20.36] = [ 28.30,116.06] Ry 
 Optimized for a Real-space Cutoff    1.51 Angstroem

   l    n(q)    QCUT    max X(q) W(low)/X(q) W(high)/X(q)  e(spline) 
   0      9    10.053   115.676    0.19E-03    0.21E-03    0.38E-06
   0      9    10.053    87.132    0.19E-03    0.21E-03    0.38E-06
   1      9    10.053     4.429    0.87E-04    0.11E-03    0.39E-06
   1      9    10.053     2.733    0.59E-04    0.62E-04    0.43E-06
 Optimization of the real space projectors (new method)

 maximal supplied QI-value         = 25.13
 optimisation between [QCUT,QGAM] = [ 10.05, 20.36] = [ 28.30,116.06] Ry 
 Optimized for a Real-space Cutoff    1.70 Angstroem

   l    n(q)    QCUT    max X(q) W(low)/X(q) W(high)/X(q)  e(spline) 
   0     10    10.053    79.467    0.61E-04    0.98E-04    0.61E-06
   0     10    10.053    66.151    0.60E-04    0.98E-04    0.61E-06
   1     10    10.053     8.350    0.17E-03    0.71E-03    0.45E-05
   1     10    10.053     5.531    0.18E-03    0.77E-03    0.49E-05
 Optimization of the real space projectors (new method)

 maximal supplied QI-value         = 16.25
 optimisation between [QCUT,QGAM] = [ 10.24, 20.48] = [ 29.35,117.42] Ry 
 Optimized for a Real-space Cutoff    1.51 Angstroem

   l    n(q)    QCUT    max X(q) W(low)/X(q) W(high)/X(q)  e(spline) 
   2      8    10.239    60.317    0.19E-03    0.31E-03    0.23E-06
   2      8    10.239    55.921    0.19E-03    0.31E-03    0.24E-06
   0      9    10.239    51.690    0.11E-03    0.62E-04    0.90E-07
   0      9    10.239    30.015    0.10E-03    0.58E-04    0.82E-07
   1      9    10.239    18.849    0.41E-04    0.17E-03    0.11E-06
   1      9    10.239    14.624    0.32E-04    0.14E-03    0.10E-06
  PAW_PBE C 08Apr2002                   :
 energy of atom  1       EATOM= -147.1560
 kinetic energy error for atom=    0.0288 (will be added to EATOM!!)
  PAW_PBE N 08Apr2002                   :
 energy of atom  2       EATOM= -264.5486
 kinetic energy error for atom=    0.0736 (will be added to EATOM!!)
  PAW_PBE Ni 02Aug2007                  :
 energy of atom  3       EATOM=-1077.6739
 kinetic energy error for atom=    0.0101 (will be added to EATOM!!)
 
 
 POSCAR: CONTCARcif
  positions in direct lattice
  velocities in cartesian coordinates
 exchange correlation table for  LEXCH =        8
   RHO(1)=    0.500       N(1)  =     2000
   RHO(2)=  100.500       N(2)  =     4000
 


--------------------------------------------------------------------------------------------------------


 ion  position               nearest neighbor table
   1  0.000  0.000  0.110-  56 1.42  66 1.43   2 1.44
   2  0.058  0.113  0.110-  13 1.42  15 1.43   1 1.44
   3  0.165  0.999  0.110-  58 1.42   4 1.42  56 1.43
   4  0.222  0.110  0.110-  15 1.42   3 1.42  17 1.42
   5  0.332  0.999  0.110-   6 1.41  60 1.41  58 1.42
   6  0.389  0.109  0.110-   5 1.41  17 1.42  19 1.42
   7  0.500  0.000  0.110-   8 1.41  62 1.41  60 1.43
   8  0.556  0.111  0.110-  19 1.41   7 1.41  21 1.42
   9  0.668  0.001  0.110-  10 1.42  64 1.42  62 1.42
  10  0.724  0.112  0.110-  21 1.42   9 1.42  23 1.43
  11  0.835  0.001  0.110-  66 1.42  64 1.43  12 1.43
  12  0.892  0.113  0.110-  23 1.42  11 1.43  13 1.43
  13  0.004  0.169  0.110-   2 1.42  14 1.43  12 1.43
  14  0.062  0.281  0.110-  25 1.43  13 1.43  27 1.45
  15  0.170  0.168  0.110-   4 1.42   2 1.43  16 1.45
  16  0.231  0.281  0.110-  67 1.38  27 1.44  15 1.45
  17  0.333  0.164  0.110-  18 1.40   6 1.42   4 1.42
  18  0.389  0.274  0.110-  67 1.38  17 1.40  29 1.42
  19  0.500  0.164  0.110-   8 1.41  20 1.42   6 1.42
  20  0.555  0.275  0.110-  29 1.40  19 1.42  30 1.42
  21  0.668  0.167  0.110-  10 1.42  22 1.42   8 1.42
  22  0.723  0.278  0.110-  21 1.42  30 1.42  32 1.43
  23  0.836  0.168  0.110-  12 1.42  24 1.42  10 1.43
  24  0.892  0.279  0.110-  23 1.42  32 1.43  25 1.43
  25  0.004  0.335  0.110-  26 1.42  14 1.43  24 1.43
  26  0.058  0.446  0.110-  25 1.42  36 1.43  34 1.44
  27  0.176  0.338  0.110-  16 1.44  28 1.44  14 1.45
  28  0.231  0.450  0.110-  69 1.38  27 1.44  36 1.45
  29  0.500  0.329  0.110-  68 1.38  20 1.40  18 1.42
  30  0.667  0.332  0.110-  31 1.42  22 1.42  20 1.42
  31  0.719  0.442  0.110-  30 1.42  41 1.43  39 1.45
  32  0.835  0.334  0.110-  33 1.42  22 1.43  24 1.43
  33  0.888  0.444  0.110-  32 1.42  34 1.43  41 1.44
  34  0.000  0.500  0.110-  35 1.42  33 1.43  26 1.44
  35  0.054  0.611  0.110-  34 1.42  45 1.43  43 1.43
  36  0.170  0.502  0.110-  37 1.42  26 1.43  28 1.45
  37  0.222  0.613  0.110-  36 1.42  45 1.42  47 1.42
  38  0.389  0.615  0.110-  69 1.37  47 1.40  49 1.42
  39  0.658  0.494  0.110-  68 1.38  40 1.44  31 1.45
  40  0.713  0.607  0.110-  39 1.44  51 1.44  53 1.45
  41  0.831  0.499  0.110-  42 1.42  31 1.43  33 1.44
  42  0.885  0.610  0.110-  41 1.42  53 1.43  43 1.43
  43  0.997  0.666  0.110-  44 1.42  35 1.43  42 1.43
  44  0.053  0.777  0.110-  43 1.42  55 1.42  57 1.43
  45  0.165  0.667  0.110-  46 1.42  37 1.42  35 1.43
  46  0.221  0.778  0.110-  57 1.42  45 1.42  59 1.42
  47  0.333  0.670  0.110-  38 1.40  48 1.42  37 1.42
  48  0.389  0.780  0.110-  59 1.41  47 1.42  61 1.42
  49  0.500  0.671  0.110-  70 1.37  50 1.40  38 1.42
  50  0.555  0.781  0.110-  49 1.40  61 1.42  63 1.42
  51  0.658  0.663  0.110-  70 1.38  40 1.44  52 1.45
  52  0.719  0.776  0.110-  63 1.42  65 1.43  51 1.45
  53  0.827  0.663  0.110-  54 1.43  42 1.43  40 1.45
  54  0.885  0.775  0.110-  65 1.42  53 1.43  55 1.43
  55  0.997  0.831  0.110-  44 1.42  56 1.43  54 1.43
  56  0.054  0.943  0.110-   1 1.42   3 1.43  55 1.43
  57  0.165  0.832  0.110-  58 1.42  46 1.42  44 1.43
  58  0.221  0.943  0.110-  57 1.42   3 1.42   5 1.42
  59  0.332  0.834  0.110-  48 1.41  60 1.41  46 1.42
  60  0.389  0.944  0.110-  59 1.41   5 1.41   7 1.43
  61  0.500  0.835  0.110-  62 1.41  50 1.42  48 1.42
  62  0.557  0.946  0.110-  61 1.41   7 1.41   9 1.42
  63  0.667  0.835  0.110-  52 1.42  64 1.42  50 1.42
  64  0.723  0.946  0.110-   9 1.42  63 1.42  11 1.43
  65  0.831  0.832  0.110-  54 1.42  52 1.43  66 1.44
  66  0.888  0.944  0.110-  11 1.42   1 1.43  65 1.44
  67  0.339  0.331  0.110-  18 1.38  16 1.38  71 1.88
  68  0.550  0.436  0.110-  29 1.38  39 1.38  71 1.88
  69  0.339  0.508  0.110-  38 1.37  28 1.38  71 1.88
  70  0.550  0.613  0.110-  49 1.37  51 1.38  71 1.88
  71  0.444  0.472  0.110-  69 1.88  70 1.88  67 1.88  68 1.88
 

IMPORTANT INFORMATION: All symmetrisations will be switched off!
NOSYMM: (Re-)initialisation of all symmetry stuff for point group C_1.


----------------------------------------------------------------------------------------

                                     Primitive cell                                     

  volume of cell :    2837.1138

  direct lattice vectors                    reciprocal lattice vectors
    14.778400421  0.000000000  0.000000000     0.067666322  0.039067169  0.000000000
    -7.389200211 12.798470192  0.000000000     0.000000000  0.078134338  0.000000000
     0.000000000  0.000000000 15.000000000     0.000000000  0.000000000  0.066666667

  length of vectors
    14.778400421 14.778400421 15.000000000     0.078134338  0.078134338  0.066666667

  position of ions in fractional coordinates (direct lattice)
     0.000436373  0.000424280  0.110031576
     0.058369973  0.112685277  0.110029774
     0.165449216  0.998578813  0.110030382
     0.222364684  0.109569545  0.110030188
     0.332383535  0.998580567  0.110029042
     0.389082448  0.109005582  0.110033834
     0.500208434  0.000129376  0.110030151
     0.556498991  0.110637603  0.110031841
     0.667810159  0.001280043  0.110028588
     0.724080496  0.112068750  0.110027685
     0.834835844  0.001345464  0.110029806
     0.892052811  0.113131694  0.110030694
     0.004074605  0.169396585  0.110029525
     0.062369290  0.281211557  0.110022884
     0.170326663  0.168253703  0.110024412
     0.231262595  0.281060282  0.110012122
     0.333392537  0.163891916  0.110025741
     0.388902887  0.273544112  0.110012800
     0.499802035  0.164366645  0.110033672
     0.555492508  0.274944135  0.110028144
     0.667805375  0.166582035  0.110028724
     0.723434268  0.277569818  0.110032315
     0.835839674  0.167954799  0.110026655
     0.892065561  0.278997853  0.110031146
     0.004088604  0.334746200  0.110029747
     0.058376050  0.445759691  0.110030443
     0.175899049  0.337975716  0.110009890
     0.231259781  0.450258678  0.110012871
     0.499980278  0.329083317  0.110016999
     0.666520169  0.331647511  0.110028840
     0.718557658  0.442370193  0.110022328
     0.834851261  0.333573900  0.110030219
     0.888446308  0.444427649  0.110030895
     0.000451586  0.500101524  0.110032061
     0.054047064  0.610949601  0.110030030
     0.170326453  0.502133647  0.110024898
     0.222359849  0.612852249  0.110030598
     0.388899325  0.615418076  0.110014522
     0.657619072  0.494238340  0.110016944
     0.712982300  0.606517599  0.110015563
     0.830513724  0.498756595  0.110027604
     0.884808207  0.609763767  0.110029923
     0.996830802  0.665520472  0.110028798
     0.053042471  0.776556266  0.110026567
     0.165452914  0.666933140  0.110030506
     0.221070909  0.777909998  0.110028221
     0.333386352  0.669548617  0.110026549
     0.389076641  0.780124333  0.110034258
     0.499983996  0.670959699  0.110018489
     0.555497961  0.780602947  0.110028839
     0.657622253  0.663440324  0.110017743
     0.718557475  0.776248845  0.110022635
     0.826512206  0.663283616  0.110024117
     0.884794023  0.775099537  0.110029709
     0.996818057  0.831375226  0.110028937
     0.054031265  0.943165664  0.110029735
     0.164801818  0.832430505  0.110024760
     0.221075654  0.943217344  0.110028392
     0.332376439  0.833854469  0.110028824
     0.388672772  0.944360439  0.110026726
     0.499806720  0.835489280  0.110034495
     0.556505289  0.945917644  0.110032177
     0.666525005  0.834934049  0.110028815
     0.723429891  0.945922292  0.110031843
     0.830508133  0.831826661  0.110027472
     0.888430629  0.944093060  0.110030437
     0.339222427  0.331204448  0.110012265
     0.549659504  0.436424331  0.110017024
     0.339217229  0.508085512  0.110014095
     0.549664899  0.613308881  0.110018258
     0.444438724  0.472267591  0.110013448

  ion indices of the primitive-cell ions
   primitive index   ion index
                 1           1
                 2           2
                 3           3
                 4           4
                 5           5
                 6           6
                 7           7
                 8           8
                 9           9
                10          10
                11          11
                12          12
                13          13
                14          14
                15          15
                16          16
                17          17
                18          18
                19          19
                20          20
                21          21
                22          22
                23          23
                24          24
                25          25
                26          26
                27          27
                28          28
                29          29
                30          30
                31          31
                32          32
                33          33
                34          34
                35          35
                36          36
                37          37
                38          38
                39          39
                40          40
                41          41
                42          42
                43          43
                44          44
                45          45
                46          46
                47          47
                48          48
                49          49
                50          50
                51          51
                52          52
                53          53
                54          54
                55          55
                56          56
                57          57
                58          58
                59          59
                60          60
                61          61
                62          62
                63          63
                64          64
                65          65
                66          66
                67          67
                68          68
                69          69
                70          70
                71          71

----------------------------------------------------------------------------------------

 
 
 KPOINTS: K-Spacing Value to Generate K-Mesh: 0.02

Automatic generation of k-mesh.
 Grid dimensions read from file:
 generate k-points for:    4    4    1

 Generating k-lattice:

  Cartesian coordinates                     Fractional coordinates (reciprocal lattice)
     0.016916580  0.009766792  0.000000000     0.250000000 -0.000000000  0.000000000
     0.000000000  0.019533585  0.000000000     0.000000000  0.250000000  0.000000000
     0.000000000  0.000000000  0.066666667     0.000000000  0.000000000  1.000000000

  Length of vectors
     0.019533585  0.019533585  0.066666667

  Shift w.r.t. Gamma in fractional coordinates (k-lattice)
     0.500000000  0.500000000  0.000000000

 
 Subroutine IBZKPT returns following result:
 ===========================================
 
 Found     24 irreducible k-points:
 
 Following reciprocal coordinates:
            Coordinates               Weight
  0.125000  0.125000  0.000000      2.000000
 -0.125000  0.250000  0.000000      2.000000
 -0.250000  0.125000  0.000000      2.000000
  0.375000  0.125000  0.000000      2.000000
 -0.125000  0.500000  0.000000      2.000000
  0.500000  0.375000  0.000000      2.000000
 -0.375000  0.500000  0.000000      2.000000
  0.125000  0.375000  0.000000      2.000000
  0.500000 -0.125000  0.000000      2.000000
 -0.375000  0.125000  0.000000      2.000000
 -0.125000 -0.250000  0.000000      2.000000
  0.250000 -0.375000  0.000000      2.000000
  0.375000 -0.250000  0.000000      2.000000
  0.125000 -0.375000  0.000000      2.000000
 -0.250000 -0.125000  0.000000      2.000000
 -0.125000  0.125000  0.000000      2.000000
 -0.125000  0.000000  0.000000      2.000000
  0.000000 -0.125000  0.000000      2.000000
  0.375000  0.375000  0.000000      2.000000
 -0.375000 -0.250000  0.000000      2.000000
  0.250000  0.375000  0.000000      2.000000
 -0.375000  0.375000  0.000000      2.000000
 -0.375000 -0.000000  0.000000      2.000000
  0.000000 -0.375000  0.000000      2.000000
 
 Following cartesian coordinates:
            Coordinates               Weight
  0.008458  0.014650  0.000000      2.000000
 -0.008458  0.014650  0.000000      2.000000
 -0.016917 -0.000000  0.000000      2.000000
  0.025375  0.024417  0.000000      2.000000
 -0.008458  0.034184  0.000000      2.000000
  0.033833  0.048834  0.000000      2.000000
 -0.025375  0.024417  0.000000      2.000000
  0.008458  0.034184  0.000000      2.000000
  0.033833  0.009767  0.000000      2.000000
 -0.025375 -0.004883  0.000000      2.000000
 -0.008458 -0.024417  0.000000      2.000000
  0.016917 -0.019534  0.000000      2.000000
  0.025375 -0.004883  0.000000      2.000000
  0.008458 -0.024417  0.000000      2.000000
 -0.016917 -0.019534  0.000000      2.000000
 -0.008458  0.004883  0.000000      2.000000
 -0.008458 -0.004883  0.000000      2.000000
  0.000000 -0.009767  0.000000      2.000000
  0.025375  0.043951  0.000000      2.000000
 -0.025375 -0.034184  0.000000      2.000000
  0.016917  0.039067  0.000000      2.000000
 -0.025375  0.014650  0.000000      2.000000
 -0.025375 -0.014650  0.000000      2.000000
  0.000000 -0.029300  0.000000      2.000000
 


--------------------------------------------------------------------------------------------------------




 Dimension of arrays:
   k-points           NKPTS =     24   k-points in BZ     NKDIM =     24   number of bands    NBANDS=    192
   number of dos      NEDOS =    301   number of ions     NIONS =     71
   non local maximal  LDIM  =      6   non local SUM 2l+1 LMDIM =     18
   total plane-waves  NPLWV = 903168
   max r-space proj   IRMAX =   6576   max aug-charges    IRDMAX=  82742
   dimension x,y,z NGX =    96 NGY =   96 NGZ =   98
   dimension x,y,z NGXF=   192 NGYF=  192 NGZF=  196
   support grid    NGXF=   384 NGYF=  384 NGZF=  392
   ions per type =              66   4   1
   NGX,Y,Z   is equivalent  to a cutoff of  10.80, 10.80, 10.86 a.u.
   NGXF,Y,Z  is equivalent  to a cutoff of  21.60, 21.60, 21.72 a.u.

 SYSTEM =  KAIST-INCAR                             
 POSCAR =  CONTCARcif                              

 Startparameter for this run:
   NWRITE =      2    write-flag & timer
   PREC   = accura    normal or accurate (medium, high low for compatibility)
   ISTART =      0    job   : 0-new  1-cont  2-samecut
   ICHARG =      2    charge: 1-file 2-atom 10-const
   ISPIN  =      2    spin polarized calculation?
   LNONCOLLINEAR =      F non collinear calculations
   LSORBIT =      F    spin-orbit coupling
   INIWAV =      1    electr: 0-lowe 1-rand  2-diag
   LASPH  =      F    aspherical Exc in radial PAW
 Electronic Relaxation 1
   ENCUT  =  400.0 eV  29.40 Ry    5.42 a.u.  24.10 24.10 24.46*2*pi/ulx,y,z
   ENINI  =  400.0     initial cutoff
   ENAUG  =  644.9 eV  augmentation charge cutoff
   NELM   =   4000;   NELMIN=  6; NELMDL=-20     # of ELM steps 
   EDIFF  = 0.1E-04   stopping-criterion for ELM
   LREAL  =      T    real-space projection
   NLSPLINE    = F    spline interpolate recip. space projectors
   LCOMPAT=      F    compatible to vasp.4.4
   GGA_COMPAT  = T    GGA compatible to vasp.4.4-vasp.4.6
   LMAXPAW     = -100 max onsite density
   LMAXMIX     =    4 max onsite mixed and CHGCAR
   VOSKOWN=      0    Vosko Wilk Nusair interpolation
   ROPT   =   -0.00025  -0.00025  -0.00025
 Ionic relaxation
   EDIFFG = -.2E-01   stopping-criterion for IOM
   NSW    =   4000    number of steps for IOM
   NBLOCK =      1;   KBLOCK =   4000    inner block; outer block 
   IBRION =      2    ionic relax: 0-MD 1-quasi-New 2-CG
   NFREE  =      1    steps in history (QN), initial steepest desc. (CG)
   ISIF   =      2    stress and relaxation
   IWAVPR =     11    prediction:  0-non 1-charg 2-wave 3-comb
   ISYM   =      0    0-nonsym 1-usesym 2-fastsym
   LCORR  =      T    Harris-Foulkes like correction to forces

   POTIM  = 0.2000    time-step for ionic-motion
   TEIN   =    0.0    initial temperature
   TEBEG  =    0.0;   TEEND  =   0.0 temperature during run
   SMASS  =  -3.00    Nose mass-parameter (am)
   estimated Nose-frequenzy (Omega)   =  0.10E-29 period in steps = 0.31E+47 mass=  -0.499E-26a.u.
   SCALEE = 1.0000    scale energy and forces
   NPACO  =    256;   APACO  = 10.0  distance and # of slots for P.C.
   PSTRESS=    0.0 pullay stress

  Mass of Ions in am
   POMASS =  12.01 14.00 58.69
  Ionic Valenz
   ZVAL   =   4.00  5.00 10.00
  Atomic Wigner-Seitz radii
   RWIGS  =  -1.00 -1.00 -1.00
  virtual crystal weights 
   VCA    =   1.00  1.00  1.00
   NELECT =     294.0000    total number of electrons
   NUPDOWN=      -1.0000    fix difference up-down

 DOS related values:
   EMIN   =  10.00;   EMAX   =-10.00  energy-range for DOS
   EFERMI =   0.00;   METHOD = LEGACY      
   ISMEAR =     0;   SIGMA  =   0.05  broadening in eV -4-tet -1-fermi 0-gaus

 Electronic relaxation 2 (details)
   IALGO  =     48    algorithm
   LDIAG  =      T    sub-space diagonalisation (order eigenvalues)
   LSUBROT=      F    optimize rotation matrix (better conditioning)
   TURBO    =      0    0=normal 1=particle mesh
   IRESTART =      0    0=no restart 2=restart with 2 vectors
   NREBOOT  =      0    no. of reboots
   NMIN     =      0    reboot dimension
   EREF     =   0.00    reference energy to select bands
   IMIX   =      4    mixing-type and parameters
     AMIX     =   0.20;   BMIX     =  0.00
     AMIX_MAG =   0.80;   BMIX_MAG =  0.00
     AMIN     =   0.10
     WC   =   100.;   INIMIX=   1;  MIXPRE=   1;  MAXMIX= -45

 Intra band minimization:
   WEIMIN = 0.0010     energy-eigenvalue tresh-hold
   EBREAK =  0.13E-07  absolut break condition
   DEPER  =   0.30     relativ break condition  

   TIME   =   0.40     timestep for ELM

  volume/ion in A,a.u.               =      39.96       269.66
  Fermi-wavevector in a.u.,A,eV,Ry     =   0.768950  1.453106  8.044918  0.591285
  Thomas-Fermi vector in A             =   1.869834
 
 Write flags
   LWAVE        =      F    write WAVECAR
   LDOWNSAMPLE  =      F    k-point downsampling of WAVECAR
   LCHARG       =      F    write CHGCAR
   LVTOT        =      F    write LOCPOT, total local potential
   LVHAR        =      F    write LOCPOT, Hartree potential only
   LELF         =      F    write electronic localiz. function (ELF)
   LORBIT       =     11    0 simple, 1 ext, 2 COOP (PROOUT), +10 PAW based schemes


 Dipole corrections
   LMONO  =      F    monopole corrections only (constant potential shift)
   LDIPOL =      F    correct potential (dipole corrections)
   IDIPOL =      3    1-x, 2-y, 3-z, 4-all directions 
   EPSILON=  1.0000000 bulk dielectric constant

 Exchange correlation treatment:
   GGA     =    PE    GGA type
   LEXCH   =     8    internal setting for exchange type
   LIBXC   =     F    Libxc                    
   VOSKOWN =     0    Vosko Wilk Nusair interpolation
   LHFCALC =     F    Hartree Fock is set to
   LHFONE  =     F    Hartree Fock one center treatment
   AEXX    =    0.0000 exact exchange contribution

 Linear response parameters
   LEPSILON=     F    determine dielectric tensor
   LRPA    =     F    only Hartree local field effects (RPA)
   LNABLA  =     F    use nabla operator in PAW spheres
   LVEL    =     F    velocity operator in full k-point grid
   CSHIFT  =0.1000    complex shift for real part using Kramers Kronig
   OMEGAMAX=  -1.0    maximum frequency
   DEG_THRESHOLD= 0.2000000E-02 threshold for treating states as degnerate
   RTIME   =   -0.100 relaxation time in fs
  (WPLASMAI=    0.000 imaginary part of plasma frequency in eV, 0.658/RTIME)
   DFIELD  = 0.0000000 0.0000000 0.0000000 field for delta impulse in time
 
  Optional k-point grid parameters
   LKPOINTS_OPT  =     F    use optional k-point grid
   KPOINTS_OPT_MODE=     1    mode for optional k-point grid
 
 Orbital magnetization related:
   ORBITALMAG=     F  switch on orbital magnetization
   LCHIMAG   =     F  perturbation theory with respect to B field
   DQ        =  0.001000  dq finite difference perturbation B field
   LLRAUG    =     F  two centre corrections for induced B field
   LBONE     =     F  B-component reconstruction in AE one-centre
   LVGVCALC  =     T  calculate vGv susceptibility
   LVGVAPPL  =     F  apply vGv susceptibility instead of pGv for G=0

 Random number generation:
   RANDOM_GENERATOR = DEFAULT
   PCG_SEED         = not used


--------------------------------------------------------------------------------------------------------


 conjugate gradient relaxation of ions
 charge density and potential will be updated during run
 spin polarized calculation
 RMM-DIIS sequential band-by-band
 perform sub-space diagonalisation
    before iterative eigenvector-optimisation
 modified Broyden-mixing scheme, WC =      100.0
 initial mixing is a Kerker type mixing with AMIX =  0.2000 and BMIX =      0.0000
 Hartree-type preconditioning will be used
 using additional bands           45
 real space projection scheme for non local part
 use partial core corrections
 calculate Harris-corrections to forces 
   (improved forces if not selfconsistent)
 use gradient corrections 
 use of overlap-Matrix (Vanderbilt PP)
 Gauss-broadening in eV      SIGMA  =   0.05


--------------------------------------------------------------------------------------------------------


  energy-cutoff  :      400.00
  volume of cell :     2837.11
      direct lattice vectors                 reciprocal lattice vectors
    14.778400421  0.000000000  0.000000000     0.067666322  0.039067169  0.000000000
    -7.389200211 12.798470192  0.000000000     0.000000000  0.078134338  0.000000000
     0.000000000  0.000000000 15.000000000     0.000000000  0.000000000  0.066666667

  length of vectors
    14.778400421 14.778400421 15.000000000     0.078134338  0.078134338  0.066666667


 
 k-points in units of 2pi/SCALE and weight: K-Spacing Value to Generate K-Mesh: 0.02
   0.00845829  0.01465019  0.00000000       0.042
  -0.00845829  0.01465019  0.00000000       0.042
  -0.01691658 -0.00000000  0.00000000       0.042
   0.02537487  0.02441698  0.00000000       0.042
  -0.00845829  0.03418377  0.00000000       0.042
   0.03383316  0.04883396  0.00000000       0.042
  -0.02537487  0.02441698  0.00000000       0.042
   0.00845829  0.03418377  0.00000000       0.042
   0.03383316  0.00976679  0.00000000       0.042
  -0.02537487 -0.00488340  0.00000000       0.042
  -0.00845829 -0.02441698  0.00000000       0.042
   0.01691658 -0.01953358  0.00000000       0.042
   0.02537487 -0.00488340  0.00000000       0.042
   0.00845829 -0.02441698  0.00000000       0.042
  -0.01691658 -0.01953358  0.00000000       0.042
  -0.00845829  0.00488340  0.00000000       0.042
  -0.00845829 -0.00488340  0.00000000       0.042
   0.00000000 -0.00976679  0.00000000       0.042
   0.02537487  0.04395057  0.00000000       0.042
  -0.02537487 -0.03418377  0.00000000       0.042
   0.01691658  0.03906717  0.00000000       0.042
  -0.02537487  0.01465019  0.00000000       0.042
  -0.02537487 -0.01465019  0.00000000       0.042
   0.00000000 -0.02930038  0.00000000       0.042
 
 k-points in reciprocal lattice and weights: K-Spacing Value to Generate K-Mesh: 0.02
   0.12500000  0.12500000  0.00000000       0.042
  -0.12500000  0.25000000  0.00000000       0.042
  -0.25000000  0.12500000  0.00000000       0.042
   0.37500000  0.12500000  0.00000000       0.042
  -0.12500000  0.50000000  0.00000000       0.042
   0.50000000  0.37500000  0.00000000       0.042
  -0.37500000  0.50000000  0.00000000       0.042
   0.12500000  0.37500000  0.00000000       0.042
   0.50000000 -0.12500000  0.00000000       0.042
  -0.37500000  0.12500000  0.00000000       0.042
  -0.12500000 -0.25000000  0.00000000       0.042
   0.25000000 -0.37500000  0.00000000       0.042
   0.37500000 -0.25000000  0.00000000       0.042
   0.12500000 -0.37500000  0.00000000       0.042
  -0.25000000 -0.12500000  0.00000000       0.042
  -0.12500000  0.12500000  0.00000000       0.042
  -0.12500000  0.00000000  0.00000000       0.042
   0.00000000 -0.12500000  0.00000000       0.042
   0.37500000  0.37500000  0.00000000       0.042
  -0.37500000 -0.25000000  0.00000000       0.042
   0.25000000  0.37500000  0.00000000       0.042
  -0.37500000  0.37500000  0.00000000       0.042
  -0.37500000 -0.00000000  0.00000000       0.042
   0.00000000 -0.37500000  0.00000000       0.042
 
 position of ions in fractional coordinates (direct lattice) 
   0.00043637  0.00042428  0.11003158
   0.05836997  0.11268528  0.11002977
   0.16544922  0.99857881  0.11003038
   0.22236468  0.10956955  0.11003019
   0.33238353  0.99858057  0.11002904
   0.38908245  0.10900558  0.11003383
   0.50020843  0.00012938  0.11003015
   0.55649899  0.11063760  0.11003184
   0.66781016  0.00128004  0.11002859
   0.72408050  0.11206875  0.11002769
   0.83483584  0.00134546  0.11002981
   0.89205281  0.11313169  0.11003069
   0.00407461  0.16939658  0.11002952
   0.06236929  0.28121156  0.11002288
   0.17032666  0.16825370  0.11002441
   0.23126259  0.28106028  0.11001212
   0.33339254  0.16389192  0.11002574
   0.38890289  0.27354411  0.11001280
   0.49980204  0.16436664  0.11003367
   0.55549251  0.27494414  0.11002814
   0.66780537  0.16658203  0.11002872
   0.72343427  0.27756982  0.11003232
   0.83583967  0.16795480  0.11002665
   0.89206556  0.27899785  0.11003115
   0.00408860  0.33474620  0.11002975
   0.05837605  0.44575969  0.11003044
   0.17589905  0.33797572  0.11000989
   0.23125978  0.45025868  0.11001287
   0.49998028  0.32908332  0.11001700
   0.66652017  0.33164751  0.11002884
   0.71855766  0.44237019  0.11002233
   0.83485126  0.33357390  0.11003022
   0.88844631  0.44442765  0.11003090
   0.00045159  0.50010152  0.11003206
   0.05404706  0.61094960  0.11003003
   0.17032645  0.50213365  0.11002490
   0.22235985  0.61285225  0.11003060
   0.38889932  0.61541808  0.11001452
   0.65761907  0.49423834  0.11001694
   0.71298230  0.60651760  0.11001556
   0.83051372  0.49875659  0.11002760
   0.88480821  0.60976377  0.11002992
   0.99683080  0.66552047  0.11002880
   0.05304247  0.77655627  0.11002657
   0.16545291  0.66693314  0.11003051
   0.22107091  0.77791000  0.11002822
   0.33338635  0.66954862  0.11002655
   0.38907664  0.78012433  0.11003426
   0.49998400  0.67095970  0.11001849
   0.55549796  0.78060295  0.11002884
   0.65762225  0.66344032  0.11001774
   0.71855747  0.77624885  0.11002263
   0.82651221  0.66328362  0.11002412
   0.88479402  0.77509954  0.11002971
   0.99681806  0.83137523  0.11002894
   0.05403127  0.94316566  0.11002973
   0.16480182  0.83243050  0.11002476
   0.22107565  0.94321734  0.11002839
   0.33237644  0.83385447  0.11002882
   0.38867277  0.94436044  0.11002673
   0.49980672  0.83548928  0.11003449
   0.55650529  0.94591764  0.11003218
   0.66652500  0.83493405  0.11002882
   0.72342989  0.94592229  0.11003184
   0.83050813  0.83182666  0.11002747
   0.88843063  0.94409306  0.11003044
   0.33922243  0.33120445  0.11001226
   0.54965950  0.43642433  0.11001702
   0.33921723  0.50808551  0.11001410
   0.54966490  0.61330888  0.11001826
   0.44443872  0.47226759  0.11001345
 
 position of ions in cartesian coordinates  (Angst):
   0.00331381  0.00543013  1.65047364
   0.02996076  1.44219916  1.65044661
  -4.93362402 12.78028118  1.65045574
   2.47656303  1.40232256  1.65045282
  -2.46661476 12.78030362  1.65043563
   4.94455214  1.39510469  1.65050750
   7.39132454  0.00165582  1.65045226
   7.40664153  1.41599206  1.65047761
   9.85970744  0.01638259  1.65042882
   9.87265308  1.43430855  1.65041528
  12.32759649  0.01721988  1.65044709
  12.34716091  1.44791261  1.65046041
  -1.19148913  2.16801714  1.65044287
  -1.15621015  3.59907773  1.65034326
   1.27389533  2.15339000  1.65036619
   1.34088054  3.59714164  1.65018183
   3.71597822  2.09756580  1.65038611
   3.72609038  3.50094616  1.65019200
   6.17173656  2.10364160  1.65050508
   6.17767345  3.51886432  1.65042216
   8.63818722  2.13199521  1.65043086
   8.64018233  3.55246904  1.65048473
  11.11132176  2.14956449  1.65039982
  11.12173106  3.57074571  1.65046720
  -2.41308366  4.28423926  1.65044620
  -2.43110297  5.70504212  1.65045664
   0.10213634  4.32557213  1.65014836
   0.09059813  5.76262227  1.65019307
   4.95724623  4.21176303  1.65025499
   7.39949208  4.24458079  1.65043261
   7.35037087  5.66166173  1.65033492
   9.87292189  4.26923561  1.65045329
   9.84585042  5.68799401  1.65046343
  -3.68867657  6.40053444  1.65048092
  -3.71569977  7.81922026  1.65045045
  -1.19321352  6.42654251  1.65037346
  -1.24236508  7.84357124  1.65045897
   1.19986257  7.87640991  1.65021783
   6.06653193  6.32549466  1.65025417
   6.05505795  7.76249741  1.65023344
   8.58825203  6.38332141  1.65041406
   8.57038342  7.80404340  1.65044885
   9.81390073  8.51764392  1.65043197
  -4.95424684  9.93873222  1.65039850
  -2.48297308  8.53572391  1.65045759
  -2.48105830  9.95605792  1.65042331
  -0.02051178  8.56919802  1.65039823
  -0.01456448  9.98439802  1.65051388
   2.43110815  8.58725770  1.65027733
   2.44133984  9.99052355  1.65043259
   4.81631160  8.49102121  1.65026614
   4.88327196  9.93479771  1.65033952
   7.31339290  8.48901559  1.65036176
   7.34847469  9.92008833  1.65044564
   8.58817840 10.64033104  1.65043406
  -6.17074425 12.07107764  1.65044602
  -3.71548840 10.65383700  1.65037140
  -3.70247726 12.07173906  1.65042588
  -1.24952552 10.67206157  1.65043235
  -1.23410649 12.08636893  1.65040089
   1.21274628 10.69298464  1.65051742
   1.23468314 12.10629877  1.65048265
   3.68067856 10.68587854  1.65043223
   3.70152741 12.10635825  1.65047764
   6.12704801 10.64610873  1.65041208
   6.15349095 12.08294688  1.65045656
   2.56582889  4.23891025  1.65018397
   4.89826149  5.58556380  1.65025536
   1.25874247  6.50271728  1.65021143
   3.59130586  7.84941544  1.65027388
   3.07841364  6.04430269  1.65020171
 


--------------------------------------------------------------------------------------------------------


 k-point   1 :   0.1250 0.1250 0.0000  plane waves:   51516
 k-point   2 :  -0.1250 0.2500 0.0000  plane waves:   51516
 k-point   3 :  -0.2500 0.1250 0.0000  plane waves:   51516
 k-point   4 :   0.3750 0.1250 0.0000  plane waves:   51550
 k-point   5 :  -0.1250 0.5000 0.0000  plane waves:   51550
 k-point   6 :   0.5000 0.3750 0.0000  plane waves:   51550
 k-point   7 :  -0.3750 0.5000 0.0000  plane waves:   51550
 k-point   8 :   0.1250 0.3750 0.0000  plane waves:   51550
 k-point   9 :   0.5000-0.1250 0.0000  plane waves:   51550
 k-point  10 :  -0.3750 0.1250 0.0000  plane waves:   51547
 k-point  11 :  -0.1250-0.2500 0.0000  plane waves:   51547
 k-point  12 :   0.2500-0.3750 0.0000  plane waves:   51547
 k-point  13 :   0.3750-0.2500 0.0000  plane waves:   51547
 k-point  14 :   0.1250-0.3750 0.0000  plane waves:   51547
 k-point  15 :  -0.2500-0.1250 0.0000  plane waves:   51547
 k-point  16 :  -0.1250 0.1250 0.0000  plane waves:   51573
 k-point  17 :  -0.1250 0.0000 0.0000  plane waves:   51573
 k-point  18 :   0.0000-0.1250 0.0000  plane waves:   51573
 k-point  19 :   0.3750 0.3750 0.0000  plane waves:   51552
 k-point  20 :  -0.3750-0.2500 0.0000  plane waves:   51552
 k-point  21 :   0.2500 0.3750 0.0000  plane waves:   51552
 k-point  22 :  -0.3750 0.3750 0.0000  plane waves:   51526
 k-point  23 :  -0.3750-0.0000 0.0000  plane waves:   51526
 k-point  24 :   0.0000-0.3750 0.0000  plane waves:   51526

 maximum and minimum number of plane-waves per node :     12915    12846

 maximum number of plane-waves:     51573
 maximum index in each direction: 
   IXMAX=   24   IYMAX=   24   IZMAX=   24
   IXMIN=  -24   IYMIN=  -24   IZMIN=  -24


 real space projection operators:
  total allocation   :      20518.70 KBytes
  max/ min on nodes  :       5143.02       5114.34


 parallel 3D FFT for wavefunctions:
    minimum data exchange during FFTs selected (reduces bandwidth)
 parallel 3D FFT for charge:
    minimum data exchange during FFTs selected (reduces bandwidth)


 total amount of memory used by VASP MPI-rank0   358290. kBytes
=======================================================================

   base      :      30000. kBytes
   nonlr-proj:       8717. kBytes
   fftplans  :      39752. kBytes
   grid      :      38172. kBytes
   one-center:        559. kBytes
   wavefun   :     241090. kBytes
 
     INWAV:  cpu time      0.0001: real time      0.0001
 Broyden mixing: mesh for mixing (old mesh)
   NGX = 49   NGY = 49   NGZ = 49
  (NGX  =192   NGY  =192   NGZ  =196)
  gives a total of 117649 points

 initial charge density was supplied:
 charge density of overlapping atoms calculated
 number of electron     294.0000000 magnetization       5.0000000
 keeping initial charge density in first step


--------------------------------------------------------------------------------------------------------


 Maximum index for non-local projection operator         1582
 Maximum index for augmentation-charges         2732 (set IRDMAX)


--------------------------------------------------------------------------------------------------------


 First call to EWALD:  gamma=   0.125
 Maximum number of real-space cells 3x 3x 3
 Maximum number of reciprocal cells 3x 3x 3

    FEWALD:  cpu time      0.0103: real time      0.0104


--------------------------------------- Ionic step        1  -------------------------------------------




--------------------------------------- Iteration      1(   1)  ---------------------------------------


    POTLOK:  cpu time      0.9453: real time      0.9471
    SETDIJ:  cpu time      0.3676: real time      0.3673
    EDDIAG:  cpu time     24.0118: real time     24.1928
  RMM-DIIS:  cpu time     37.1152: real time     37.1464
    ORTHCH:  cpu time      2.0217: real time      2.0244
       DOS:  cpu time      0.0182: real time      0.0183
    --------------------------------------------
      LOOP:  cpu time     64.4799: real time     64.6965

 eigenvalue-minimisations  :  9216
 total energy-change (2. order) : 0.4169777E+04  (-0.7408454E+04)
 number of electron     294.0000000 magnetization       5.0000000
 augmentation part      294.0000000 magnetization       5.0000000

 Free energy of the ion-electron system (eV)
  ---------------------------------------------------
  alpha Z        PSCENC =       154.67458656
  Ewald energy   TEWEN  =     31180.11003518
  -Hartree energ DENC   =    -40276.78590487
  -exchange      EXHF   =         0.00000000
  -V(xc)+E(xc)   XCENC  =       983.63463315
  PAW double counting   =      8942.25088435    -9051.16491249
  entropy T*S    EENTRO =        -0.02239996
  eigenvalues    EBANDS =       391.11971191
  atomic energy  EATOM  =     11845.96062231
  Solvation  Ediel_sol  =         0.00000000
  ---------------------------------------------------
  free energy    TOTEN  =      4169.77725613 eV

  energy without entropy =     4169.79965609  energy(sigma->0) =     4169.78845611


--------------------------------------------------------------------------------------------------------




--------------------------------------- Iteration      1(   2)  ---------------------------------------


    EDDIAG:  cpu time     24.0060: real time     24.0184
  RMM-DIIS:  cpu time     36.6954: real time     36.7080
    ORTHCH:  cpu time      1.9518: real time      1.9525
       DOS:  cpu time      0.0169: real time      0.0169
    --------------------------------------------
      LOOP:  cpu time     62.6701: real time     62.6958

 eigenvalue-minimisations  :  9216
 total energy-change (2. order) :-0.2671566E+04  (-0.3178306E+04)
 number of electron     294.0000000 magnetization       5.0000000
 augmentation part      294.0000000 magnetization       5.0000000

 Free energy of the ion-electron system (eV)
  ---------------------------------------------------
  alpha Z        PSCENC =       154.67458656
  Ewald energy   TEWEN  =     31180.11003518
  -Hartree energ DENC   =    -40276.78590487
  -exchange      EXHF   =         0.00000000
  -V(xc)+E(xc)   XCENC  =       983.63463315
  PAW double counting   =      8942.25088435    -9051.16491249
  entropy T*S    EENTRO =        -0.02519204
  eigenvalues    EBANDS =     -2280.44333765
  atomic energy  EATOM  =     11845.96062231
  Solvation  Ediel_sol  =         0.00000000
  ---------------------------------------------------
  free energy    TOTEN  =      1498.21141450 eV

  energy without entropy =     1498.23660654  energy(sigma->0) =     1498.22401052


--------------------------------------------------------------------------------------------------------




--------------------------------------- Iteration      1(   3)  ---------------------------------------


    EDDIAG:  cpu time     23.8498: real time     23.8751
  RMM-DIIS:  cpu time     37.3689: real time     37.3809
    ORTHCH:  cpu time      1.9791: real time      1.9798
       DOS:  cpu time      0.0175: real time      0.0175
    --------------------------------------------
      LOOP:  cpu time     63.2153: real time     63.2533

 eigenvalue-minimisations  :  9216
 total energy-change (2. order) :-0.8403213E+03  (-0.1482438E+04)
 number of electron     294.0000000 magnetization       5.0000000
 augmentation part      294.0000000 magnetization       5.0000000

 Free energy of the ion-electron system (eV)
  ---------------------------------------------------
  alpha Z        PSCENC =       154.67458656
  Ewald energy   TEWEN  =     31180.11003518
  -Hartree energ DENC   =    -40276.78590487
  -exchange      EXHF   =         0.00000000
  -V(xc)+E(xc)   XCENC  =       983.63463315
  PAW double counting   =      8942.25088435    -9051.16491249
  entropy T*S    EENTRO =        -0.03537328
  eigenvalues    EBANDS =     -3120.75443448
  atomic energy  EATOM  =     11845.96062231
  Solvation  Ediel_sol  =         0.00000000
  ---------------------------------------------------
  free energy    TOTEN  =       657.89013642 eV

  energy without entropy =      657.92550971  energy(sigma->0) =      657.90782306


--------------------------------------------------------------------------------------------------------




--------------------------------------- Iteration      1(   4)  ---------------------------------------


    EDDIAG:  cpu time     24.0879: real time     24.1160
  RMM-DIIS:  cpu time     36.6557: real time     36.6687
    ORTHCH:  cpu time      1.9571: real time      1.9577
       DOS:  cpu time      0.0168: real time      0.0175
    --------------------------------------------
      LOOP:  cpu time     62.7174: real time     62.7599

 eigenvalue-minimisations  :  9216
 total energy-change (2. order) :-0.7636644E+03  (-0.7547939E+03)
 number of electron     294.0000000 magnetization       5.0000000
 augmentation part      294.0000000 magnetization       5.0000000

 Free energy of the ion-electron system (eV)
  ---------------------------------------------------
  alpha Z        PSCENC =       154.67458656
  Ewald energy   TEWEN  =     31180.11003518
  -Hartree energ DENC   =    -40276.78590487
  -exchange      EXHF   =         0.00000000
  -V(xc)+E(xc)   XCENC  =       983.63463315
  PAW double counting   =      8942.25088435    -9051.16491249
  entropy T*S    EENTRO =        -0.01957964
  eigenvalues    EBANDS =     -3884.43467058
  atomic energy  EATOM  =     11845.96062231
  Solvation  Ediel_sol  =         0.00000000
  ---------------------------------------------------
  free energy    TOTEN  =      -105.77430603 eV

  energy without entropy =     -105.75472639  energy(sigma->0) =     -105.76451621


--------------------------------------------------------------------------------------------------------




--------------------------------------- Iteration      1(   5)  ---------------------------------------


    EDDIAG:  cpu time     24.3372: real time     24.3473
  RMM-DIIS:  cpu time     37.2020: real time     37.2147
    ORTHCH:  cpu time      2.0150: real time      2.0154
       DOS:  cpu time      0.0164: real time      0.0164
    --------------------------------------------
      LOOP:  cpu time     63.5707: real time     63.5939

 eigenvalue-minimisations  :  9216
 total energy-change (2. order) :-0.3701251E+03  (-0.3172055E+03)
 number of electron     294.0000000 magnetization       5.0000000
 augmentation part      294.0000000 magnetization       5.0000000

 Free energy of the ion-electron system (eV)
  ---------------------------------------------------
  alpha Z        PSCENC =       154.67458656
  Ewald energy   TEWEN  =     31180.11003518
  -Hartree energ DENC   =    -40276.78590487
  -exchange      EXHF   =         0.00000000
  -V(xc)+E(xc)   XCENC  =       983.63463315
  PAW double counting   =      8942.25088435    -9051.16491249
  entropy T*S    EENTRO =        -0.00422984
  eigenvalues    EBANDS =     -4254.57516932
  atomic energy  EATOM  =     11845.96062231
  Solvation  Ediel_sol  =         0.00000000
  ---------------------------------------------------
  free energy    TOTEN  =      -475.89945497 eV

  energy without entropy =     -475.89522514  energy(sigma->0) =     -475.89734005


--------------------------------------------------------------------------------------------------------




--------------------------------------- Iteration      1(   6)  ---------------------------------------


    EDDIAG:  cpu time     24.1685: real time     24.1954
  RMM-DIIS:  cpu time     37.0433: real time     37.0567
    ORTHCH:  cpu time      1.9675: real time      1.9680
       DOS:  cpu time      0.0168: real time      0.0167
    --------------------------------------------
      LOOP:  cpu time     63.1959: real time     63.2369

 eigenvalue-minimisations  :  9216
 total energy-change (2. order) :-0.1520682E+03  (-0.1235556E+03)
 number of electron     294.0000000 magnetization       5.0000000
 augmentation part      294.0000000 magnetization       5.0000000

 Free energy of the ion-electron system (eV)
  ---------------------------------------------------
  alpha Z        PSCENC =       154.67458656
  Ewald energy   TEWEN  =     31180.11003518
  -Hartree energ DENC   =    -40276.78590487
  -exchange      EXHF   =         0.00000000
  -V(xc)+E(xc)   XCENC  =       983.63463315
  PAW double counting   =      8942.25088435    -9051.16491249
  entropy T*S    EENTRO =        -0.01180272
  eigenvalues    EBANDS =     -4406.63582869
  atomic energy  EATOM  =     11845.96062231
  Solvation  Ediel_sol  =         0.00000000
  ---------------------------------------------------
  free energy    TOTEN  =      -627.96768722 eV

  energy without entropy =     -627.95588451  energy(sigma->0) =     -627.96178586


--------------------------------------------------------------------------------------------------------




--------------------------------------- Iteration      1(   7)  ---------------------------------------


    EDDIAG:  cpu time     24.1647: real time     24.1750
  RMM-DIIS:  cpu time     37.3337: real time     37.3817
    ORTHCH:  cpu time      2.0276: real time      2.0281
       DOS:  cpu time      0.0166: real time      0.0166
    --------------------------------------------
      LOOP:  cpu time     63.5428: real time     63.6015

 eigenvalue-minimisations  :  9216
 total energy-change (2. order) :-0.4170833E+02  (-0.3612226E+02)
 number of electron     294.0000000 magnetization       5.0000000
 augmentation part      294.0000000 magnetization       5.0000000

 Free energy of the ion-electron system (eV)
  ---------------------------------------------------
  alpha Z        PSCENC =       154.67458656
  Ewald energy   TEWEN  =     31180.11003518
  -Hartree energ DENC   =    -40276.78590487
  -exchange      EXHF   =         0.00000000
  -V(xc)+E(xc)   XCENC  =       983.63463315
  PAW double counting   =      8942.25088435    -9051.16491249
  entropy T*S    EENTRO =        -0.00740092
  eigenvalues    EBANDS =     -4448.34856454
  atomic energy  EATOM  =     11845.96062231
  Solvation  Ediel_sol  =         0.00000000
  ---------------------------------------------------
  free energy    TOTEN  =      -669.67602127 eV

  energy without entropy =     -669.66862035  energy(sigma->0) =     -669.67232081


--------------------------------------------------------------------------------------------------------




--------------------------------------- Iteration      1(   8)  ---------------------------------------


    EDDIAG:  cpu time     24.2526: real time     24.2645
  RMM-DIIS:  cpu time     37.3330: real time     37.3452
    ORTHCH:  cpu time      2.0283: real time      2.0289
       DOS:  cpu time      0.0168: real time      0.0168
    --------------------------------------------
      LOOP:  cpu time     63.6308: real time     63.6555

 eigenvalue-minimisations  :  9216
 total energy-change (2. order) :-0.1914989E+02  (-0.1297599E+02)
 number of electron     294.0000000 magnetization       5.0000000
 augmentation part      294.0000000 magnetization       5.0000000

 Free energy of the ion-electron system (eV)
  ---------------------------------------------------
  alpha Z        PSCENC =       154.67458656
  Ewald energy   TEWEN  =     31180.11003518
  -Hartree energ DENC   =    -40276.78590487
  -exchange      EXHF   =         0.00000000
  -V(xc)+E(xc)   XCENC  =       983.63463315
  PAW double counting   =      8942.25088435    -9051.16491249
  entropy T*S    EENTRO =        -0.00888219
  eigenvalues    EBANDS =     -4467.49697022
  atomic energy  EATOM  =     11845.96062231
  Solvation  Ediel_sol  =         0.00000000
  ---------------------------------------------------
  free energy    TOTEN  =      -688.82590822 eV

  energy without entropy =     -688.81702603  energy(sigma->0) =     -688.82146712


--------------------------------------------------------------------------------------------------------




--------------------------------------- Iteration      1(   9)  ---------------------------------------


    EDDIAG:  cpu time     24.1198: real time     24.1457
  RMM-DIIS:  cpu time     37.0321: real time     37.0453
    ORTHCH:  cpu time      2.0184: real time      2.0198
       DOS:  cpu time      0.0164: real time      0.0164
    --------------------------------------------
      LOOP:  cpu time     63.1866: real time     63.2272

 eigenvalue-minimisations  :  9216
 total energy-change (2. order) :-0.7468788E+01  (-0.6160348E+01)
 number of electron     294.0000000 magnetization       5.0000000
 augmentation part      294.0000000 magnetization       5.0000000

 Free energy of the ion-electron system (eV)
  ---------------------------------------------------
  alpha Z        PSCENC =       154.67458656
  Ewald energy   TEWEN  =     31180.11003518
  -Hartree energ DENC   =    -40276.78590487
  -exchange      EXHF   =         0.00000000
  -V(xc)+E(xc)   XCENC  =       983.63463315
  PAW double counting   =      8942.25088435    -9051.16491249
  entropy T*S    EENTRO =        -0.00810434
  eigenvalues    EBANDS =     -4474.96653578
  atomic energy  EATOM  =     11845.96062231
  Solvation  Ediel_sol  =         0.00000000
  ---------------------------------------------------
  free energy    TOTEN  =      -696.29469593 eV

  energy without entropy =     -696.28659159  energy(sigma->0) =     -696.29064376


--------------------------------------------------------------------------------------------------------




--------------------------------------- Iteration      1(  10)  ---------------------------------------


    EDDIAG:  cpu time     24.5167: real time     24.5271
  RMM-DIIS:  cpu time     36.7166: real time     36.7294
    ORTHCH:  cpu time      1.9658: real time      1.9666
       DOS:  cpu time      0.0165: real time      0.0165
    --------------------------------------------
      LOOP:  cpu time     63.2157: real time     63.2396

 eigenvalue-minimisations  :  9216
 total energy-change (2. order) :-0.3160997E+01  (-0.2332409E+01)
 number of electron     294.0000000 magnetization       5.0000000
 augmentation part      294.0000000 magnetization       5.0000000

 Free energy of the ion-electron system (eV)
  ---------------------------------------------------
  alpha Z        PSCENC =       154.67458656
  Ewald energy   TEWEN  =     31180.11003518
  -Hartree energ DENC   =    -40276.78590487
  -exchange      EXHF   =         0.00000000
  -V(xc)+E(xc)   XCENC  =       983.63463315
  PAW double counting   =      8942.25088435    -9051.16491249
  entropy T*S    EENTRO =        -0.00774892
  eigenvalues    EBANDS =     -4478.12788830
  atomic energy  EATOM  =     11845.96062231
  Solvation  Ediel_sol  =         0.00000000
  ---------------------------------------------------
  free energy    TOTEN  =      -699.45569302 eV

  energy without entropy =     -699.44794411  energy(sigma->0) =     -699.45181857


--------------------------------------------------------------------------------------------------------




--------------------------------------- Iteration      1(  11)  ---------------------------------------


    EDDIAG:  cpu time     23.8943: real time     23.9052
  RMM-DIIS:  cpu time     38.5247: real time     38.5474
    ORTHCH:  cpu time      1.9653: real time      1.9659
       DOS:  cpu time      0.0164: real time      0.0164
    --------------------------------------------
      LOOP:  cpu time     64.4007: real time     64.4349

 eigenvalue-minimisations  :  9216
 total energy-change (2. order) :-0.1861687E+01  (-0.1570097E+01)
 number of electron     294.0000000 magnetization       5.0000000
 augmentation part      294.0000000 magnetization       5.0000000

 Free energy of the ion-electron system (eV)
  ---------------------------------------------------
  alpha Z        PSCENC =       154.67458656
  Ewald energy   TEWEN  =     31180.11003518
  -Hartree energ DENC   =    -40276.78590487
  -exchange      EXHF   =         0.00000000
  -V(xc)+E(xc)   XCENC  =       983.63463315
  PAW double counting   =      8942.25088435    -9051.16491249
  entropy T*S    EENTRO =        -0.00709693
  eigenvalues    EBANDS =     -4479.99022718
  atomic energy  EATOM  =     11845.96062231
  Solvation  Ediel_sol  =         0.00000000
  ---------------------------------------------------
  free energy    TOTEN  =      -701.31737992 eV

  energy without entropy =     -701.31028299  energy(sigma->0) =     -701.31383145


--------------------------------------------------------------------------------------------------------




--------------------------------------- Iteration      1(  12)  ---------------------------------------


    EDDIAG:  cpu time     23.8473: real time     23.8582
  RMM-DIIS:  cpu time     36.7805: real time     36.7939
    ORTHCH:  cpu time      1.9642: real time      1.9648
       DOS:  cpu time      0.0160: real time      0.0160
    --------------------------------------------
      LOOP:  cpu time     62.6080: real time     62.6328

 eigenvalue-minimisations  :  9216
 total energy-change (2. order) :-0.6501241E+00  (-0.4883355E+00)
 number of electron     294.0000000 magnetization       5.0000000
 augmentation part      294.0000000 magnetization       5.0000000

 Free energy of the ion-electron system (eV)
  ---------------------------------------------------
  alpha Z        PSCENC =       154.67458656
  Ewald energy   TEWEN  =     31180.11003518
  -Hartree energ DENC   =    -40276.78590487
  -exchange      EXHF   =         0.00000000
  -V(xc)+E(xc)   XCENC  =       983.63463315
  PAW double counting   =      8942.25088435    -9051.16491249
  entropy T*S    EENTRO =        -0.00673304
  eigenvalues    EBANDS =     -4480.64071514
  atomic energy  EATOM  =     11845.96062231
  Solvation  Ediel_sol  =         0.00000000
  ---------------------------------------------------
  free energy    TOTEN  =      -701.96750400 eV

  energy without entropy =     -701.96077095  energy(sigma->0) =     -701.96413747


--------------------------------------------------------------------------------------------------------




--------------------------------------- Iteration      1(  13)  ---------------------------------------


    EDDIAG:  cpu time     23.9368: real time     23.9478
  RMM-DIIS:  cpu time     36.7175: real time     36.7308
    ORTHCH:  cpu time      1.9679: real time      1.9685
       DOS:  cpu time      0.0163: real time      0.0163
    --------------------------------------------
      LOOP:  cpu time     62.6386: real time     62.6634

 eigenvalue-minimisations  :  9216
 total energy-change (2. order) :-0.4024245E+00  (-0.3431480E+00)
 number of electron     294.0000000 magnetization       5.0000000
 augmentation part      294.0000000 magnetization       5.0000000

 Free energy of the ion-electron system (eV)
  ---------------------------------------------------
  alpha Z        PSCENC =       154.67458656
  Ewald energy   TEWEN  =     31180.11003518
  -Hartree energ DENC   =    -40276.78590487
  -exchange      EXHF   =         0.00000000
  -V(xc)+E(xc)   XCENC  =       983.63463315
  PAW double counting   =      8942.25088435    -9051.16491249
  entropy T*S    EENTRO =        -0.00659890
  eigenvalues    EBANDS =     -4481.04327375
  atomic energy  EATOM  =     11845.96062231
  Solvation  Ediel_sol  =         0.00000000
  ---------------------------------------------------
  free energy    TOTEN  =      -702.36992846 eV

  energy without entropy =     -702.36332956  energy(sigma->0) =     -702.36662901


--------------------------------------------------------------------------------------------------------




--------------------------------------- Iteration      1(  14)  ---------------------------------------


    EDDIAG:  cpu time     24.4907: real time     24.5156
  RMM-DIIS:  cpu time     36.8909: real time     36.9041
    ORTHCH:  cpu time      1.9865: real time      2.0296
       DOS:  cpu time      0.0161: real time      0.0161
    --------------------------------------------
      LOOP:  cpu time     63.3842: real time     63.4653

 eigenvalue-minimisations  :  9216
 total energy-change (2. order) :-0.1425684E+00  (-0.1104334E+00)
 number of electron     294.0000000 magnetization       5.0000000
 augmentation part      294.0000000 magnetization       5.0000000

 Free energy of the ion-electron system (eV)
  ---------------------------------------------------
  alpha Z        PSCENC =       154.67458656
  Ewald energy   TEWEN  =     31180.11003518
  -Hartree energ DENC   =    -40276.78590487
  -exchange      EXHF   =         0.00000000
  -V(xc)+E(xc)   XCENC  =       983.63463315
  PAW double counting   =      8942.25088435    -9051.16491249
  entropy T*S    EENTRO =        -0.00655160
  eigenvalues    EBANDS =     -4481.18588949
  atomic energy  EATOM  =     11845.96062231
  Solvation  Ediel_sol  =         0.00000000
  ---------------------------------------------------
  free energy    TOTEN  =      -702.51249690 eV

  energy without entropy =     -702.50594530  energy(sigma->0) =     -702.50922110


--------------------------------------------------------------------------------------------------------




--------------------------------------- Iteration      1(  15)  ---------------------------------------


    EDDIAG:  cpu time     24.2048: real time     24.2157
  RMM-DIIS:  cpu time     84.5130: real time     84.5600
    ORTHCH:  cpu time      2.0325: real time      2.0332
       DOS:  cpu time      0.0173: real time      0.0173
    --------------------------------------------
      LOOP:  cpu time    110.7677: real time    110.8262

 eigenvalue-minimisations  : 25117
 total energy-change (2. order) :-0.1703353E+00  (-0.1586676E+00)
 number of electron     294.0000000 magnetization       5.0000000
 augmentation part      294.0000000 magnetization       5.0000000

 Free energy of the ion-electron system (eV)
  ---------------------------------------------------
  alpha Z        PSCENC =       154.67458656
  Ewald energy   TEWEN  =     31180.11003518
  -Hartree energ DENC   =    -40276.78590487
  -exchange      EXHF   =         0.00000000
  -V(xc)+E(xc)   XCENC  =       983.63463315
  PAW double counting   =      8942.25088435    -9051.16491249
  entropy T*S    EENTRO =        -0.00669717
  eigenvalues    EBANDS =     -4481.35607925
  atomic energy  EATOM  =     11845.96062231
  Solvation  Ediel_sol  =         0.00000000
  ---------------------------------------------------
  free energy    TOTEN  =      -702.68283223 eV

  energy without entropy =     -702.67613506  energy(sigma->0) =     -702.67948365


--------------------------------------------------------------------------------------------------------




--------------------------------------- Iteration      1(  16)  ---------------------------------------


    EDDIAG:  cpu time     27.0017: real time     27.0144
  RMM-DIIS:  cpu time     82.7848: real time     82.8134
    ORTHCH:  cpu time      1.9857: real time      1.9863
       DOS:  cpu time      0.0167: real time      0.0167
    --------------------------------------------
      LOOP:  cpu time    111.7889: real time    111.8307

 eigenvalue-minimisations  : 24188
 total energy-change (2. order) :-0.1257661E-01  (-0.8394356E-02)
 number of electron     294.0000000 magnetization       5.0000000
 augmentation part      294.0000000 magnetization       5.0000000

 Free energy of the ion-electron system (eV)
  ---------------------------------------------------
  alpha Z        PSCENC =       154.67458656
  Ewald energy   TEWEN  =     31180.11003518
  -Hartree energ DENC   =    -40276.78590487
  -exchange      EXHF   =         0.00000000
  -V(xc)+E(xc)   XCENC  =       983.63463315
  PAW double counting   =      8942.25088435    -9051.16491249
  entropy T*S    EENTRO =        -0.00677848
  eigenvalues    EBANDS =     -4481.36857455
  atomic energy  EATOM  =     11845.96062231
  Solvation  Ediel_sol  =         0.00000000
  ---------------------------------------------------
  free energy    TOTEN  =      -702.69540884 eV

  energy without entropy =     -702.68863036  energy(sigma->0) =     -702.69201960


--------------------------------------------------------------------------------------------------------




--------------------------------------- Iteration      1(  17)  ---------------------------------------


    EDDIAG:  cpu time     23.7890: real time     23.8143
  RMM-DIIS:  cpu time     77.9471: real time     77.9751
    ORTHCH:  cpu time      1.9432: real time      1.9438
       DOS:  cpu time      0.0164: real time      0.0164
    --------------------------------------------
      LOOP:  cpu time    103.6956: real time    103.7495

 eigenvalue-minimisations  : 22907
 total energy-change (2. order) :-0.1442093E-02  (-0.1083527E-02)
 number of electron     294.0000000 magnetization       5.0000000
 augmentation part      294.0000000 magnetization       5.0000000

 Free energy of the ion-electron system (eV)
  ---------------------------------------------------
  alpha Z        PSCENC =       154.67458656
  Ewald energy   TEWEN  =     31180.11003518
  -Hartree energ DENC   =    -40276.78590487
  -exchange      EXHF   =         0.00000000
  -V(xc)+E(xc)   XCENC  =       983.63463315
  PAW double counting   =      8942.25088435    -9051.16491249
  entropy T*S    EENTRO =        -0.00680770
  eigenvalues    EBANDS =     -4481.36998742
  atomic energy  EATOM  =     11845.96062231
  Solvation  Ediel_sol  =         0.00000000
  ---------------------------------------------------
  free energy    TOTEN  =      -702.69685093 eV

  energy without entropy =     -702.69004323  energy(sigma->0) =     -702.69344708


[...]
   0.219E+01 0.480E+01 -.215E-01   -.219E+01 -.482E+01 0.216E-01   -.966E-02 0.175E-01 -.276E-03   0.159E-03 -.349E-05 0.181E-05
   0.590E+01 -.129E+01 -.734E-02   -.602E+01 0.131E+01 0.727E-02   0.116E+00 -.231E-01 0.253E-03   0.121E-03 -.259E-03 -.383E-06
   0.208E+02 0.106E+02 -.283E-02   -.213E+02 -.107E+02 0.286E-02   0.525E+00 0.649E-01 0.215E-03   -.307E-03 0.487E-03 -.196E-05
   0.199E+02 -.337E+01 -.304E-01   -.204E+02 0.346E+01 0.305E-01   0.487E+00 -.919E-01 -.657E-03   0.144E-03 -.218E-03 0.179E-06
   0.334E+02 -.498E+02 0.502E-01   -.336E+02 0.535E+02 -.505E-01   0.278E+00 -.369E+01 0.937E-03   -.686E-03 -.290E-02 -.116E-04
   -.513E+02 -.272E+02 0.265E-01   0.546E+02 0.296E+02 -.265E-01   -.329E+01 -.238E+01 0.195E-03   -.204E-02 -.901E-04 -.804E-05
   -.272E+02 -.157E+02 0.415E-01   0.274E+02 0.158E+02 -.419E-01   -.211E+00 -.120E+00 0.840E-03   -.848E-03 -.427E-03 -.595E-05
   -.902E+01 -.736E-01 -.403E-02   0.925E+01 0.346E+00 0.397E-02   -.231E+00 -.269E+00 -.362E-03   0.110E-03 -.262E-03 -.145E-05
   -.517E+01 -.578E+01 -.233E-01   0.518E+01 0.593E+01 0.235E-01   -.142E-01 -.137E+00 -.848E-03   0.284E-03 -.315E-03 -.220E-05
   0.177E+01 0.273E+01 -.481E-02   -.189E+01 -.268E+01 0.476E-02   0.120E+00 -.528E-01 0.248E-03   0.208E-04 0.520E-04 -.146E-05
   0.128E+00 0.343E-01 0.808E-02   -.120E+00 -.268E-01 -.805E-02   -.104E-01 -.661E-02 0.280E-04   -.405E-04 -.322E-04 -.272E-06
   0.103E+02 0.102E+01 -.149E-01   -.105E+02 -.855E+00 0.149E-01   0.262E+00 -.167E+00 -.318E-03   0.128E-03 -.405E-03 0.120E-05
   0.508E+01 -.361E+00 -.123E-02   -.515E+01 0.411E+00 0.133E-02   0.648E-01 -.445E-01 -.414E-03   -.656E-04 -.357E-03 0.463E-06
   0.240E+02 -.151E+02 -.728E-02   -.244E+02 0.157E+02 0.737E-02   0.442E+00 -.535E+00 -.337E-03   -.105E-02 0.178E-03 -.320E-05
   0.808E+01 -.100E+02 -.430E-01   -.812E+01 0.104E+02 0.433E-01   0.265E-01 -.425E+00 -.971E-03   0.105E-04 -.538E-05 0.853E-06
   0.264E+02 -.538E+02 0.243E-01   -.295E+02 0.559E+02 -.244E-01   0.306E+01 -.209E+01 0.768E-03   0.284E-02 -.866E-03 -.129E-04
   0.113E+01 -.283E+02 -.193E-01   -.138E+01 0.290E+02 0.194E-01   0.242E+00 -.650E+00 -.313E-03   0.364E-03 0.100E-02 -.786E-05
   -.493E+02 -.308E+02 0.232E-01   0.530E+02 0.324E+02 -.231E-01   -.371E+01 -.166E+01 0.186E-03   -.118E-02 -.168E-02 -.879E-05
   -.196E+02 -.127E+02 0.162E-01   0.199E+02 0.131E+02 -.163E-01   -.319E+00 -.423E+00 0.201E-03   -.269E-03 0.497E-03 -.154E-05
   -.459E+01 -.265E+01 0.691E-02   0.462E+01 0.267E+01 -.702E-02   -.276E-01 -.138E-01 -.616E-03   -.450E-03 -.236E-03 -.358E-06
   -.759E+01 -.159E+01 -.220E-01   0.771E+01 0.153E+01 0.221E-01   -.124E+00 0.599E-01 -.800E-03   -.157E-03 0.394E-03 0.118E-05
   0.324E+01 0.149E+00 -.657E-02   -.326E+01 -.281E+00 0.655E-02   0.168E-01 0.130E+00 0.188E-03   0.514E-04 -.267E-04 -.573E-06
   0.181E+01 0.573E+01 -.651E-02   -.185E+01 -.585E+01 0.642E-02   0.415E-01 0.111E+00 0.312E-03   -.174E-03 0.203E-03 -.906E-06
   0.673E+01 0.387E+01 0.222E-01   -.675E+01 -.389E+01 -.224E-01   0.150E-01 0.879E-02 -.131E-03   -.448E-03 -.284E-03 -.163E-05
   0.226E+01 0.455E+01 -.291E-02   -.225E+01 -.463E+01 0.301E-02   -.898E-02 0.795E-01 -.360E-03   -.335E-03 0.695E-04 0.105E-05
   0.853E+01 -.955E+00 0.307E-03   -.870E+01 0.940E+00 -.370E-03   0.160E+00 0.150E-01 -.261E-03   0.675E-03 0.449E-04 0.131E-05
   -.138E+01 -.803E+00 0.169E-01   0.140E+01 0.812E+00 -.169E-01   -.175E-01 -.898E-02 0.289E-04   0.511E-03 0.252E-03 -.378E-06
   0.463E+01 -.120E+02 -.387E-01   -.498E+01 0.122E+02 0.388E-01   0.355E+00 -.235E+00 -.625E-03   -.509E-05 -.116E-04 -.102E-05
   -.343E+01 -.787E+01 -.173E-01   0.353E+01 0.801E+01 0.173E-01   -.932E-01 -.130E+00 -.233E-03   -.381E-03 -.565E-03 0.345E-06
   -.705E+01 -.190E+02 -.139E-01   0.721E+01 0.194E+02 0.139E-01   -.164E+00 -.468E+00 -.579E-03   0.125E-03 -.230E-03 -.164E-05
   -.601E+01 -.838E+01 -.237E-01   0.600E+01 0.869E+01 0.240E-01   0.137E-01 -.310E+00 -.793E-03   0.285E-03 -.314E-03 0.262E-05
   -.463E+01 -.779E+01 -.360E-02   0.498E+01 0.785E+01 0.353E-02   -.348E+00 -.681E-01 -.395E-03   -.223E-03 0.189E-03 -.716E-06
   -.525E+01 0.501E+00 -.128E-01   0.527E+01 -.520E+00 0.129E-01   -.104E-01 0.168E-01 -.443E-03   -.854E-04 -.141E-03 0.252E-05
   0.481E+02 0.341E+02 0.422E-01   -.481E+02 -.166E+02 -.420E-01   -.393E-01 -.175E+02 -.843E-03   -.704E-03 0.371E-02 -.199E-04
   -.536E+02 -.246E+02 0.149E-01   0.384E+02 0.333E+02 -.147E-01   0.152E+02 -.874E+01 -.460E-03   -.286E-02 0.244E-02 -.212E-04
   0.537E+02 0.247E+02 0.309E-01   -.385E+02 -.334E+02 -.303E-01   -.152E+02 0.874E+01 -.129E-02   0.283E-02 -.232E-02 -.198E-04
   -.482E+02 -.341E+02 0.838E-02   0.482E+02 0.166E+02 -.815E-02   0.363E-01 0.175E+02 -.531E-03   0.606E-03 -.363E-02 -.270E-04
   -.634E-01 0.926E-01 0.631E-01   0.667E-01 -.983E-01 -.633E-01   0.155E-02 -.163E-02 0.140E-02   -.121E-03 0.167E-03 -.549E-04
 -----------------------------------------------------------------------------------------------
   -.866E-03 -.305E-04 0.108E-02   -.114E-12 0.142E-12 0.971E-16   -.613E-03 -.123E-02 -.102E-01   -.422E-04 0.241E-04 -.296E-03
 
 
 POSITION                                       TOTAL-FORCE (eV/Angst)
 -----------------------------------------------------------------------------------
      0.00331      0.00543      1.65047        -0.002619     -0.001607     -0.000102
      0.02996      1.44220      1.65045        -0.002071      0.002962      0.000102
     -4.93362     12.78028      1.65046        -0.006368     -0.001099     -0.000175
      2.47656      1.40232      1.65045        -0.000564      0.003773     -0.000389
     -2.46661     12.78030      1.65044        -0.002408     -0.006489     -0.000222
      4.94455      1.39510      1.65051        -0.013851     -0.005642     -0.000620
      7.39132      0.00166      1.65045         0.002100      0.001059      0.000185
      7.40664      1.41599      1.65048         0.005889     -0.000433     -0.000002
      9.85971      0.01638      1.65043        -0.003017      0.001109      0.000035
      9.87265      1.43431      1.65042         0.007367      0.005569      0.000094
     12.32760      0.01722      1.65045         0.002700      0.000804      0.000026
     12.34716      1.44791      1.65046         0.003457      0.002728      0.000030
     -1.19149      2.16802      1.65044        -0.002402      0.007648     -0.000151
     -1.15621      3.59908      1.65034         0.001938      0.003073      0.000126
      1.27390      2.15339      1.65037         0.000544      0.006324      0.000373
      1.34088      3.59714      1.65018        -0.000550      0.005742      0.000257
      3.71598      2.09757      1.65039        -0.001891      0.002314     -0.000143
      3.72609      3.50095      1.65019        -0.003159     -0.008259      0.000832
      6.17174      2.10364      1.65051         0.012272      0.009050     -0.000449
      6.17767      3.51886      1.65042        -0.000974      0.001784     -0.000053
      8.63819      2.13200      1.65043         0.000493      0.001451      0.000056
      8.64018      3.55247      1.65048         0.003178      0.005095     -0.000317
     11.11132      2.14956      1.65040         0.001402      0.002160     -0.000056
     11.12173      3.57075      1.65047         0.002154     -0.000000      0.000013
     -2.41308      4.28424      1.65045         0.000416     -0.004234     -0.000125
     -2.43110      5.70504      1.65046         0.001593     -0.007012      0.000118
      0.10214      4.32557      1.65015        -0.002876      0.000226      0.000769
      0.09060      5.76262      1.65019         0.003616     -0.003159      0.000290
      4.95725      4.21176      1.65025         0.007888     -0.001114      0.000801
      7.39949      4.24458      1.65043        -0.002848      0.003122     -0.000473
      7.35037      5.66166      1.65033        -0.005859      0.002084      0.000206
      9.87292      4.26924      1.65045         0.000557     -0.001670      0.000036
      9.84585      5.68799      1.65046         0.002210      0.001034     -0.000305
     -3.68868      6.40053      1.65048        -0.002053     -0.007673     -0.000092
     -3.71570      7.81922      1.65045        -0.002421     -0.002082      0.000308
     -1.19321      6.42654      1.65037         0.005636     -0.002518      0.000368
     -1.24237      7.84357      1.65046         0.006285     -0.002297     -0.000407
      1.19986      7.87641      1.65022        -0.006355      0.003469      0.000774
      6.06653      6.32549      1.65025        -0.004807      0.003539      0.000370
      6.05506      7.76250      1.65023         0.001307      0.002533      0.000543
      8.58825      6.38332      1.65041        -0.001245      0.004163     -0.000298
      8.57038      7.80404      1.65045        -0.005265      0.005898     -0.000536
      9.81390      8.51764      1.65043        -0.004128     -0.001704      0.000331
     -4.95425      9.93873      1.65040        -0.002519      0.000444      0.000188
     -2.48297      8.53572      1.65046        -0.002933     -0.004914     -0.000152
     -2.48106      9.95606      1.65042         0.000472      0.004479     -0.000179
     -0.02051      8.56920      1.65040        -0.001249      0.002725     -0.000115
     -0.01456      9.98440      1.65051        -0.009890     -0.004509     -0.000527
      2.43111      8.58726      1.65028        -0.000574      0.007045      0.000842
      2.44134      9.99052      1.65043        -0.002146      0.002748     -0.000018
      4.81631      8.49102      1.65027         0.000858     -0.004789      0.000349
      4.88327      9.93480      1.65034        -0.000298     -0.006432      0.000235
      7.31339      8.48902      1.65036        -0.003095      0.000008     -0.000595
      7.34847      9.92009      1.65045         0.003823     -0.002378     -0.000508
      8.58818     10.64033      1.65043        -0.000963     -0.002491      0.000300
     -6.17074     12.07108      1.65045         0.001540     -0.001306      0.000353
     -3.71549     10.65384      1.65037        -0.008450     -0.004793     -0.000185
     -3.70248     12.07174      1.65043        -0.000828      0.001390     -0.000127
     -1.24953     10.67206      1.65043        -0.002356     -0.000298     -0.000192
     -1.23411     12.08637      1.65040        -0.002450      0.000409      0.000138
      1.21275     10.69298      1.65052         0.009494      0.005463     -0.000459
      1.23468     12.10630      1.65048         0.000365      0.003559     -0.000027
      3.68068     10.68588      1.65043        -0.001144     -0.006820     -0.000445
      3.70153     12.10636      1.65048         0.005604      0.000092     -0.000337
      6.12705     10.64611      1.65041         0.005461     -0.005047     -0.000328
      6.15349     12.08295      1.65046         0.007932     -0.002319     -0.000235
      2.56583      4.23891      1.65018         0.000146     -0.008075     -0.000467
      4.89826      5.58556      1.65026         0.006904     -0.004795     -0.000181
      1.25874      6.50272      1.65021        -0.005082      0.001206     -0.000555
      3.59131      7.84942      1.65027         0.001318      0.004862     -0.000195
      3.07841      6.04430      1.65020         0.004789     -0.007186      0.001294
 -----------------------------------------------------------------------------------
    total drift:                               -0.001521     -0.001232     -0.009373


--------------------------------------------------------------------------------------------------------



  FREE ENERGIE OF THE ION-ELECTRON SYSTEM (eV)
  ---------------------------------------------------
  free  energy   TOTEN  =      -649.61970192 eV

  energy  without entropy=     -649.61842316  energy(sigma->0) =     -649.61906254
 


--------------------------------------------------------------------------------------------------------


    POTLOK:  cpu time      1.2893: real time      1.2904


--------------------------------------------------------------------------------------------------------




--------------------------------------------------------------------------------------------------------


  
 reached required accuracy - stopping structural energy minimisation
     LOOP+:  cpu time   3779.4217: real time   3781.5251
    4ORBIT:  cpu time      0.0000: real time      0.0000



 total charge

# of ion       s       p       d       tot
------------------------------------------
    1        0.863   1.778   0.000   2.641
    2        0.862   1.777   0.000   2.640
    3        0.866   1.795   0.000   2.662
    4        0.869   1.795   0.000   2.664
    5        0.869   1.803   0.000   2.672
    6        0.869   1.811   0.000   2.680
    7        0.869   1.801   0.000   2.670
    8        0.869   1.803   0.000   2.672
    9        0.867   1.799   0.000   2.665
   10        0.867   1.793   0.000   2.660
   11        0.866   1.785   0.000   2.651
   12        0.863   1.781   0.000   2.644
   13        0.863   1.782   0.000   2.645
   14        0.858   1.757   0.000   2.614
   15        0.862   1.778   0.000   2.640
   16        0.851   1.732   0.000   2.584
   17        0.872   1.815   0.000   2.686
   18        0.867   1.793   0.000   2.659
   19        0.869   1.811   0.000   2.680
   20        0.872   1.815   0.000   2.686
   21        0.867   1.799   0.000   2.665
   22        0.866   1.795   0.000   2.662
   23        0.866   1.790   0.000   2.656
   24        0.863   1.781   0.000   2.644
   25        0.863   1.782   0.000   2.645
   26        0.862   1.777   0.000   2.640
   27        0.852   1.774   0.000   2.625
   28        0.851   1.732   0.000   2.584
   29        0.867   1.793   0.000   2.659
   30        0.869   1.795   0.000   2.664
   31        0.862   1.778   0.000   2.640
   32        0.866   1.785   0.000   2.651
   33        0.863   1.778   0.000   2.641
   34        0.863   1.778   0.000   2.641
   35        0.866   1.785   0.000   2.651
   36        0.862   1.778   0.000   2.640
   37        0.869   1.796   0.000   2.664
   38        0.867   1.793   0.000   2.659
   39        0.851   1.732   0.000   2.584
   40        0.852   1.774   0.000   2.625
   41        0.862   1.777   0.000   2.640
   42        0.863   1.782   0.000   2.645
   43        0.863   1.781   0.000   2.644
   44        0.866   1.790   0.000   2.656
   45        0.866   1.796   0.000   2.662
   46        0.867   1.799   0.000   2.665
   47        0.872   1.815   0.000   2.686
   48        0.869   1.810   0.000   2.680
   49        0.867   1.793   0.000   2.659
   50        0.872   1.815   0.000   2.686
   51        0.851   1.732   0.000   2.584
   52        0.862   1.778   0.000   2.640
   53        0.858   1.757   0.000   2.614
   54        0.863   1.782   0.000   2.645
   55        0.863   1.781   0.000   2.644
   56        0.866   1.785   0.000   2.651
   57        0.867   1.793   0.000   2.660
   58        0.867   1.799   0.000   2.665
   59        0.869   1.803   0.000   2.672
   60        0.869   1.801   0.000   2.670
   61        0.869   1.810   0.000   2.680
   62        0.869   1.803   0.000   2.672
   63        0.869   1.796   0.000   2.664
   64        0.866   1.796   0.000   2.662
   65        0.862   1.777   0.000   2.640
   66        0.863   1.778   0.000   2.641
   67        1.236   2.609   0.000   3.845
   68        1.236   2.609   0.000   3.845
   69        1.236   2.610   0.000   3.845
   70        1.236   2.610   0.000   3.845
   71        0.509   0.661   8.367   9.537
--------------------------------------------------
tot         62.515 129.023   8.367 199.904



 magnetization (x)

# of ion       s       p       d       tot
------------------------------------------
    1        0.000  -0.000   0.000  -0.000
    2        0.000  -0.000   0.000   0.000
    3        0.000   0.000   0.000   0.000
    4       -0.000  -0.000   0.000  -0.000
    5        0.000   0.000   0.000   0.000
    6        0.000  -0.000   0.000  -0.000
    7        0.000  -0.000   0.000  -0.000
    8        0.000   0.000   0.000   0.000
    9       -0.000  -0.000   0.000  -0.000
   10        0.000   0.000   0.000   0.000
   11        0.000  -0.000   0.000  -0.000
   12        0.000   0.000   0.000   0.000
   13       -0.000  -0.000   0.000  -0.000
   14        0.000   0.000   0.000   0.000
   15        0.000   0.000   0.000   0.000
   16        0.000  -0.000   0.000  -0.000
   17        0.000   0.000   0.000   0.000
   18       -0.000  -0.000   0.000  -0.000
   19        0.000  -0.000   0.000  -0.000
   20        0.000   0.000   0.000   0.000
   21       -0.000  -0.000   0.000  -0.000
   22        0.000   0.000   0.000   0.000
   23       -0.000  -0.000   0.000  -0.000
   24        0.000   0.000   0.000   0.000
   25       -0.000  -0.000   0.000  -0.000
   26        0.000  -0.000   0.000   0.000
   27       -0.000  -0.000   0.000  -0.000
   28        0.000  -0.000   0.000  -0.000
   29       -0.000  -0.000   0.000  -0.000
   30       -0.000  -0.000   0.000  -0.000
   31        0.000   0.000   0.000   0.000
   32        0.000  -0.000   0.000  -0.000
   33        0.000  -0.000   0.000  -0.000
   34        0.000  -0.000   0.000  -0.000
   35        0.000  -0.000   0.000  -0.000
   36        0.000   0.000   0.000   0.000
   37       -0.000  -0.000   0.000  -0.000
   38       -0.000  -0.000   0.000  -0.000
   39        0.000  -0.000   0.000  -0.000
   40       -0.000  -0.000   0.000  -0.000
   41        0.000  -0.000   0.000  -0.000
   42       -0.000  -0.000   0.000  -0.000
   43        0.000   0.000   0.000   0.000
   44       -0.000  -0.000   0.000  -0.000
   45        0.000   0.000   0.000   0.000
   46       -0.000  -0.000   0.000  -0.000
   47        0.000   0.000   0.000   0.000
   48        0.000  -0.000   0.000  -0.000
   49       -0.000  -0.000   0.000  -0.000
   50        0.000   0.000   0.000   0.000
   51        0.000  -0.000   0.000  -0.000
   52        0.000   0.000   0.000   0.000
   53        0.000  -0.000   0.000  -0.000
   54       -0.000  -0.000   0.000  -0.000
   55        0.000   0.000   0.000   0.000
   56        0.000  -0.000   0.000  -0.000
   57        0.000   0.000   0.000   0.000
   58       -0.000  -0.000   0.000  -0.000
   59        0.000   0.000   0.000   0.000
   60        0.000  -0.000   0.000  -0.000
   61        0.000  -0.000   0.000  -0.000
   62        0.000   0.000   0.000   0.000
   63       -0.000  -0.000   0.000  -0.000
   64        0.000   0.000   0.000   0.000
   65        0.000   0.000   0.000   0.000
   66        0.000  -0.000   0.000  -0.000
   67        0.000   0.000   0.000   0.000
   68        0.000   0.000   0.000   0.000
   69        0.000   0.000   0.000   0.000
   70        0.000   0.000   0.000   0.000
   71       -0.000   0.000  -0.000  -0.000
--------------------------------------------------
tot          0.000   0.000  -0.000   0.000
 

 total amount of memory used by VASP MPI-rank0   358290. kBytes
=======================================================================

   base      :      30000. kBytes
   nonlr-proj:       8717. kBytes
   fftplans  :      39752. kBytes
   grid      :      38172. kBytes
   one-center:        559. kBytes
   wavefun   :     241090. kBytes
 
  
  
 General timing and accounting informations for this job:
 ========================================================
  
                  Total CPU time used (sec):     3956.986
                            User time (sec):     3934.470
                          System time (sec):       22.516
                         Elapsed time (sec):     3960.012
  
                   Maximum memory used (kb):     1216680.
                   Average memory used (kb):          N/A
  
                          Minor page faults:       105811
                          Major page faults:            0
                 Voluntary context switches:        42020
