KAIST-INCAR                             
           1
    14.778400    0.000000    0.000000
    -7.389200   12.798470    0.000000
     0.000000    0.000000   15.000000
   C    N    Ni
    66     4     1
Direct configuration=     1
   0.00043637  0.00042428  0.11003158
   0.05836997  0.11268528  0.11002977
   0.16544922  0.99857881  0.11003038
   0.22236468  0.10956955  0.11003019
   0.33238353  0.99858057  0.11002904
   0.38908245  0.10900558  0.11003383
   0.50020843  0.00012938  0.11003015
   0.55649899  0.11063760  0.11003184
   0.66781016  0.00128004  0.11002859
   0.72408050  0.11206875  0.11002769
   0.83483584  0.00134546  0.11002981
   0.89205281  0.11313169  0.11003069
   0.00407461  0.16939658  0.11002952
   0.06236929  0.28121156  0.11002288
   0.17032666  0.16825370  0.11002441
   0.23126259  0.28106028  0.11001212
   0.33339254  0.16389192  0.11002574
   0.38890289  0.27354411  0.11001280
   0.49980204  0.16436664  0.11003367
   0.55549251  0.27494414  0.11002814
   0.66780537  0.16658203  0.11002872
   0.72343427  0.27756982  0.11003232
   0.83583967  0.16795480  0.11002665
   0.89206556  0.27899785  0.11003115
   0.00408860  0.33474620  0.11002975
   0.05837605  0.44575969  0.11003044
   0.17589905  0.33797572  0.11000989
   0.23125978  0.45025868  0.11001287
   0.49998028  0.32908332  0.11001700
   0.66652017  0.33164751  0.11002884
   0.71855766  0.44237019  0.11002233
   0.83485126  0.33357390  0.11003022
   0.88844631  0.44442765  0.11003090
   0.00045159  0.50010152  0.11003206
   0.05404706  0.61094960  0.11003003
   0.17032645  0.50213365  0.11002490
   0.22235985  0.61285225  0.11003060
   0.38889932  0.61541808  0.11001452
   0.65761907  0.49423834  0.11001694
   0.71298230  0.60651760  0.11001556
   0.83051372  0.49875659  0.11002760
   0.88480821  0.60976377  0.11002992
   0.99683080  0.66552047  0.11002880
   0.05304247  0.77655627  0.11002657
   0.16545291  0.66693314  0.11003051
   0.22107091  0.77791000  0.11002822
   0.33338635  0.66954862  0.11002655
   0.38907664  0.78012433  0.11003426
   0.49998400  0.67095970  0.11001849
   0.55549796  0.78060295  0.11002884
   0.65762225  0.66344032  0.11001774
   0.71855747  0.77624885  0.11002263
   0.82651221  0.66328362  0.11002412
   0.88479402  0.77509954  0.11002971
   0.99681806  0.83137523  0.11002894
   0.05403127  0.94316566  0.11002973
   0.16480182  0.83243050  0.11002476
   0.22107565  0.94321734  0.11002839
   0.33237644  0.83385447  0.11002882
   0.38867277  0.94436044  0.11002673
   0.49980672  0.83548928  0.11003449
   0.55650529  0.94591764  0.11003218
   0.66652500  0.83493405  0.11002882
   0.72342989  0.94592229  0.11003184
   0.83050813  0.83182666  0.11002747
   0.88843063  0.94409306  0.11003044
   0.33922243  0.33120445  0.11001226
   0.54965950  0.43642433  0.11001702
   0.33921723  0.50808551  0.11001410
   0.54966490  0.61330888  0.11001826
   0.44443872  0.47226759  0.11001345
