  53  53   0   0
  0.6566630E+02  0.1325440E-08  0.1312890E-08  0.2000000E-08  0.2000000E-15
  1.000000000000000E-004
  CAR 
 TS_BlakPhos                             
      3.62419768    -26.05074317  301     -1.90276005      1.00000000
    -26.051  0.0000E+00  0.0000E+00  0.0000E+00  0.0000E+00
    -25.952  0.0000E+00  0.0000E+00  0.0000E+00  0.0000E+00
    -25.853  0.0000E+00  0.0000E+00  0.0000E+00  0.0000E+00
    -25.754  0.0000E+00  0.0000E+00  0.0000E+00  0.0000E+00
    -25.655  0.0000E+00  0.0000E+00  0.0000E+00  0.0000E+00
    -25.556  0.0000E+00  0.0000E+00  0.0000E+00  0.0000E+00
    -25.457  0.0000E+00  0.0000E+00  0.0000E+00  0.0000E+00
    -25.358  0.0000E+00  0.0000E+00  0.0000E+00  0.0000E+00
    -25.259  0.0000E+00  0.0000E+00  0.0000E+00  0.0000E+00
    -25.160  0.0000E+00  0.0000E+00  0.0000E+00  0.0000E+00
    -25.062  0.0000E+00  0.0000E+00  0.0000E+00  0.0000E+00
    -24.963  0.8250E-15  0.8250E-15  0.8160E-16  0.8160E-16
    -24.864  0.2371E-07  0.2371E-07  0.2345E-08  0.2345E-08
    -24.765  0.3791E-03  0.3791E-03  0.3750E-04  0.3750E-04
    -24.666  0.8169E-02  0.8169E-02  0.8455E-03  0.8455E-03
    -24.567  0.1561E-02  0.1561E-02  0.9999E-03  0.9999E-03
    -24.468  0.6879E-06  0.6879E-06  0.1000E-02  0.1000E-02
    -24.369  0.1905E-12  0.1905E-12  0.1000E-02  0.1000E-02
    -24.270  0.0000E+00  0.0000E+00  0.1000E-02  0.1000E-02
    -24.171  0.0000E+00  0.0000E+00  0.1000E-02  0.1000E-02
    -24.072  0.3400E-12  0.3400E-12  0.1000E-02  0.1000E-02
    -23.973  0.9724E-06  0.9724E-06  0.1000E-02  0.1000E-02
    -23.875  0.1777E-02  0.1777E-02  0.1176E-02  0.1176E-02
    -23.776  0.8018E-02  0.8018E-02  0.1969E-02  0.1969E-02
    -23.677  0.3131E-03  0.3131E-03  0.2000E-02  0.2000E-02
    -23.578  0.1564E-07  0.1564E-07  0.2000E-02  0.2000E-02
    -23.479  0.4299E-15  0.4299E-15  0.2000E-02  0.2000E-02
    -23.380  0.0000E+00  0.0000E+00  0.2000E-02  0.2000E-02
    -23.281  0.0000E+00  0.0000E+00  0.2000E-02  0.2000E-02
    -23.182  0.0000E+00  0.0000E+00  0.2000E-02  0.2000E-02
    -23.083  0.0000E+00  0.0000E+00  0.2000E-02  0.2000E-02
    -22.984  0.0000E+00  0.0000E+00  0.2000E-02  0.2000E-02
    -22.885  0.0000E+00  0.0000E+00  0.2000E-02  0.2000E-02
    -22.786  0.0000E+00  0.0000E+00  0.2000E-02  0.2000E-02
    -22.688  0.0000E+00  0.0000E+00  0.2000E-02  0.2000E-02
    -22.589  0.0000E+00  0.0000E+00  0.2000E-02  0.2000E-02
    -22.490  0.0000E+00  0.0000E+00  0.2000E-02  0.2000E-02
    -22.391  0.0000E+00  0.0000E+00  0.2000E-02  0.2000E-02
    -22.292  0.0000E+00  0.0000E+00  0.2000E-02  0.2000E-02
    -22.193  0.0000E+00  0.0000E+00  0.2000E-02  0.2000E-02
    -22.094  0.0000E+00  0.0000E+00  0.2000E-02  0.2000E-02
    -21.995  0.0000E+00  0.0000E+00  0.2000E-02  0.2000E-02
    -21.896  0.0000E+00  0.0000E+00  0.2000E-02  0.2000E-02
    -21.797  0.0000E+00  0.0000E+00  0.2000E-02  0.2000E-02
    -21.698  0.0000E+00  0.0000E+00  0.2000E-02  0.2000E-02
    -21.600  0.0000E+00  0.0000E+00  0.2000E-02  0.2000E-02
    -21.501  0.0000E+00  0.0000E+00  0.2000E-02  0.2000E-02
    -21.402  0.0000E+00  0.0000E+00  0.2000E-02  0.2000E-02
    -21.303  0.0000E+00  0.0000E+00  0.2000E-02  0.2000E-02
    -21.204  0.0000E+00  0.0000E+00  0.2000E-02  0.2000E-02
    -21.105  0.0000E+00  0.0000E+00  0.2000E-02  0.2000E-02
    -21.006  0.0000E+00  0.0000E+00  0.2000E-02  0.2000E-02
    -20.907  0.0000E+00  0.0000E+00  0.2000E-02  0.2000E-02
    -20.808  0.0000E+00  0.0000E+00  0.2000E-02  0.2000E-02
    -20.709  0.0000E+00  0.0000E+00  0.2000E-02  0.2000E-02
    -20.610  0.0000E+00  0.0000E+00  0.2000E-02  0.2000E-02
    -20.511  0.0000E+00  0.0000E+00  0.2000E-02  0.2000E-02
    -20.413  0.0000E+00  0.0000E+00  0.2000E-02  0.2000E-02
    -20.314  0.0000E+00  0.0000E+00  0.2000E-02  0.2000E-02
    -20.215  0.0000E+00  0.0000E+00  0.2000E-02  0.2000E-02
    -20.116  0.0000E+00  0.0000E+00  0.2000E-02  0.2000E-02
    -20.017  0.0000E+00  0.0000E+00  0.2000E-02  0.2000E-02
    -19.918  0.0000E+00  0.0000E+00  0.2000E-02  0.2000E-02
    -19.819  0.0000E+00  0.0000E+00  0.2000E-02  0.2000E-02
    -19.720  0.0000E+00  0.0000E+00  0.2000E-02  0.2000E-02
    -19.621  0.0000E+00  0.0000E+00  0.2000E-02  0.2000E-02
    -19.522  0.0000E+00  0.0000E+00  0.2000E-02  0.2000E-02
    -19.423  0.0000E+00  0.0000E+00  0.2000E-02  0.2000E-02
    -19.324  0.0000E+00  0.0000E+00  0.2000E-02  0.2000E-02
    -19.226  0.0000E+00  0.0000E+00  0.2000E-02  0.2000E-02
    -19.127  0.0000E+00  0.0000E+00  0.2000E-02  0.2000E-02
    -19.028  0.0000E+00  0.0000E+00  0.2000E-02  0.2000E-02
    -18.929  0.0000E+00  0.0000E+00  0.2000E-02  0.2000E-02
    -18.830  0.0000E+00  0.0000E+00  0.2000E-02  0.2000E-02
    -18.731  0.0000E+00  0.0000E+00  0.2000E-02  0.2000E-02
    -18.632  0.0000E+00  0.0000E+00  0.2000E-02  0.2000E-02
    -18.533  0.0000E+00  0.0000E+00  0.2000E-02  0.2000E-02
    -18.434  0.0000E+00  0.0000E+00  0.2000E-02  0.2000E-02
    -18.335  0.0000E+00  0.0000E+00  0.2000E-02  0.2000E-02
    -18.236  0.0000E+00  0.0000E+00  0.2000E-02  0.2000E-02
    -18.137  0.0000E+00  0.0000E+00  0.2000E-02  0.2000E-02
    -18.039  0.0000E+00  0.0000E+00  0.2000E-02  0.2000E-02
    -17.940  0.0000E+00  0.0000E+00  0.2000E-02  0.2000E-02
    -17.841  0.2234E-12  0.2234E-12  0.2000E-02  0.2000E-02
    -17.742  0.7568E-06  0.7568E-06  0.2000E-02  0.2000E-02
    -17.643  0.1619E-02  0.1619E-02  0.2160E-02  0.2160E-02
    -17.544  0.8130E-02  0.8130E-02  0.2964E-02  0.2964E-02
    -17.445  0.3671E-03  0.3671E-03  0.3001E-02  0.3001E-02
    -17.346  0.3485E-02  0.3485E-02  0.3345E-02  0.3345E-02
    -17.247  0.6535E-02  0.6535E-02  0.3992E-02  0.3992E-02
    -17.148  0.8287E-04  0.8287E-04  0.4000E-02  0.4000E-02
    -17.049  0.1019E-08  0.1019E-08  0.4000E-02  0.4000E-02
    -16.950  0.4743E-10  0.4743E-10  0.4000E-02  0.4000E-02
    -16.852  0.1691E-04  0.1691E-04  0.4002E-02  0.4002E-02
    -16.753  0.5880E-02  0.5880E-02  0.4583E-02  0.4583E-02
    -16.654  0.1547E-01  0.1547E-01  0.6114E-02  0.6114E-02
    -16.555  0.1414E-01  0.1414E-01  0.7512E-02  0.7512E-02
    -16.456  0.4911E-02  0.4911E-02  0.7998E-02  0.7998E-02
    -16.357  0.1762E-04  0.1762E-04  0.8000E-02  0.8000E-02
    -16.258  0.1022E-09  0.1022E-09  0.8000E-02  0.8000E-02
    -16.159  0.1691E-04  0.1691E-04  0.8002E-02  0.8002E-02
    -16.060  0.6260E-02  0.6260E-02  0.8621E-02  0.8621E-02
    -15.961  0.2558E-01  0.2558E-01  0.1115E-01  0.1115E-01
    -15.862  0.8471E-02  0.8471E-02  0.1199E-01  0.1199E-01
    -15.763  0.1079E-03  0.1079E-03  0.1200E-01  0.1200E-01
    -15.665  0.1712E-08  0.1712E-08  0.1200E-01  0.1200E-01
    -15.566  0.1430E-12  0.1430E-12  0.1200E-01  0.1200E-01
    -15.467  0.6343E-06  0.6343E-06  0.1200E-01  0.1200E-01
    -15.368  0.2047E-02  0.2047E-02  0.1220E-01  0.1220E-01
    -15.269  0.1665E-01  0.1665E-01  0.1385E-01  0.1385E-01
    -15.170  0.1518E-02  0.1518E-02  0.1400E-01  0.1400E-01
    -15.071  0.3101E-06  0.3101E-06  0.1400E-01  0.1400E-01
    -14.972  0.4982E-13  0.4982E-13  0.1400E-01  0.1400E-01
    -14.873  0.7785E-07  0.7785E-07  0.1400E-01  0.1400E-01
    -14.774  0.6511E-03  0.6511E-03  0.1406E-01  0.1406E-01
    -14.675  0.1326E-01  0.1326E-01  0.1538E-01  0.1538E-01
    -14.576  0.3168E-01  0.3168E-01  0.1851E-01  0.1851E-01
    -14.478  0.2026E-01  0.2026E-01  0.2051E-01  0.2051E-01
    -14.379  0.4908E-02  0.4908E-02  0.2100E-01  0.2100E-01
    -14.280  0.2758E-03  0.2758E-03  0.2103E-01  0.2103E-01
    -14.181  0.2097E-01  0.2097E-01  0.2310E-01  0.2310E-01
    -14.082  0.1901E-01  0.1901E-01  0.2498E-01  0.2498E-01
    -13.983  0.8092E-03  0.8092E-03  0.2506E-01  0.2506E-01
    -13.884  0.1157E-01  0.1157E-01  0.2620E-01  0.2620E-01
    -13.785  0.7932E-02  0.7932E-02  0.2699E-01  0.2699E-01
    -13.686  0.1070E-03  0.1070E-03  0.2700E-01  0.2700E-01
    -13.587  0.1684E-08  0.1684E-08  0.2700E-01  0.2700E-01
    -13.488  0.1347E-16  0.1347E-16  0.2700E-01  0.2700E-01
    -13.389  0.0000E+00  0.0000E+00  0.2700E-01  0.2700E-01
    -13.291  0.0000E+00  0.0000E+00  0.2700E-01  0.2700E-01
    -13.192  0.0000E+00  0.0000E+00  0.2700E-01  0.2700E-01
    -13.093  0.0000E+00  0.0000E+00  0.2700E-01  0.2700E-01
    -12.994  0.0000E+00  0.0000E+00  0.2700E-01  0.2700E-01
    -12.895  0.0000E+00  0.0000E+00  0.2700E-01  0.2700E-01
    -12.796  0.0000E+00  0.0000E+00  0.2700E-01  0.2700E-01
    -12.697  0.0000E+00  0.0000E+00  0.2700E-01  0.2700E-01
    -12.598  0.0000E+00  0.0000E+00  0.2700E-01  0.2700E-01
    -12.499  0.0000E+00  0.0000E+00  0.2700E-01  0.2700E-01
    -12.400  0.0000E+00  0.0000E+00  0.2700E-01  0.2700E-01
    -12.301  0.0000E+00  0.0000E+00  0.2700E-01  0.2700E-01
    -12.202  0.9750E-12  0.9750E-12  0.2700E-01  0.2700E-01
    -12.104  0.1811E-05  0.1811E-05  0.2700E-01  0.2700E-01
    -12.005  0.2274E-02  0.2274E-02  0.2723E-01  0.2723E-01
    -11.906  0.1828E-01  0.1828E-01  0.2903E-01  0.2903E-01
    -11.807  0.3354E-01  0.3354E-01  0.3235E-01  0.3235E-01
    -11.708  0.1059E-01  0.1059E-01  0.3340E-01  0.3340E-01
    -11.609  0.1511E-01  0.1511E-01  0.3489E-01  0.3489E-01
    -11.510  0.9769E-02  0.9769E-02  0.3586E-01  0.3586E-01
    -11.411  0.5403E-02  0.5403E-02  0.3639E-01  0.3639E-01
    -11.312  0.3086E-01  0.3086E-01  0.3945E-01  0.3945E-01
    -11.213  0.1478E-01  0.1478E-01  0.4091E-01  0.4091E-01
    -11.114  0.4584E-02  0.4584E-02  0.4136E-01  0.4136E-01
    -11.015  0.1519E-01  0.1519E-01  0.4286E-01  0.4286E-01
    -10.917  0.1383E-02  0.1383E-02  0.4300E-01  0.4300E-01
    -10.818  0.4110E-06  0.4110E-06  0.4300E-01  0.4300E-01
    -10.719  0.8049E-13  0.8049E-13  0.4300E-01  0.4300E-01
    -10.620  0.0000E+00  0.0000E+00  0.4300E-01  0.4300E-01
    -10.521  0.0000E+00  0.0000E+00  0.4300E-01  0.4300E-01
    -10.422  0.0000E+00  0.0000E+00  0.4300E-01  0.4300E-01
    -10.323  0.0000E+00  0.0000E+00  0.4300E-01  0.4300E-01
    -10.224  0.0000E+00  0.0000E+00  0.4300E-01  0.4300E-01
    -10.125  0.6026E-12  0.6026E-12  0.4300E-01  0.4300E-01
    -10.026  0.1365E-05  0.1365E-05  0.4300E-01  0.4300E-01
     -9.927  0.2032E-02  0.2032E-02  0.4320E-01  0.4320E-01
     -9.828  0.1255E-01  0.1255E-01  0.4444E-01  0.4444E-01
     -9.730  0.1087E-01  0.1087E-01  0.4552E-01  0.4552E-01
     -9.631  0.2956E-01  0.2956E-01  0.4844E-01  0.4844E-01
     -9.532  0.5644E-02  0.5644E-02  0.4900E-01  0.4900E-01
     -9.433  0.6342E-05  0.6342E-05  0.4900E-01  0.4900E-01
     -9.334  0.6043E-11  0.6043E-11  0.4900E-01  0.4900E-01
     -9.235  0.0000E+00  0.0000E+00  0.4900E-01  0.4900E-01
     -9.136  0.0000E+00  0.0000E+00  0.4900E-01  0.4900E-01
     -9.037  0.0000E+00  0.0000E+00  0.4900E-01  0.4900E-01
     -8.938  0.1740E-16  0.1740E-16  0.4900E-01  0.4900E-01
     -8.839  0.1952E-08  0.1952E-08  0.4900E-01  0.4900E-01
     -8.740  0.1149E-03  0.1149E-03  0.4901E-01  0.4901E-01
     -8.641  0.6946E-02  0.6946E-02  0.4970E-01  0.4970E-01
     -8.543  0.3975E-02  0.3975E-02  0.5009E-01  0.5009E-01
     -8.444  0.8478E-02  0.8478E-02  0.5093E-01  0.5093E-01
     -8.345  0.6006E-02  0.6006E-02  0.5152E-01  0.5152E-01
     -8.246  0.2104E-01  0.2104E-01  0.5361E-01  0.5361E-01
     -8.147  0.4334E-02  0.4334E-02  0.5403E-01  0.5403E-01
     -8.048  0.1382E-01  0.1382E-01  0.5540E-01  0.5540E-01
     -7.949  0.2033E-01  0.2033E-01  0.5741E-01  0.5741E-01
     -7.850  0.1308E-01  0.1308E-01  0.5871E-01  0.5871E-01
     -7.751  0.2975E-02  0.2975E-02  0.5900E-01  0.5900E-01
     -7.652  0.1022E-03  0.1022E-03  0.5901E-01  0.5901E-01
     -7.553  0.1033E-01  0.1033E-01  0.6003E-01  0.6003E-01
     -7.454  0.2494E-01  0.2494E-01  0.6250E-01  0.6250E-01
     -7.356  0.2607E-01  0.2607E-01  0.6508E-01  0.6508E-01
     -7.257  0.2435E-01  0.2435E-01  0.6749E-01  0.6749E-01
     -7.158  0.2785E-01  0.2785E-01  0.7024E-01  0.7024E-01
     -7.059  0.1440E-01  0.1440E-01  0.7166E-01  0.7166E-01
     -6.960  0.1303E-01  0.1303E-01  0.7295E-01  0.7295E-01
     -6.861  0.1182E-01  0.1182E-01  0.7412E-01  0.7412E-01
     -6.762  0.1627E-01  0.1627E-01  0.7573E-01  0.7573E-01
     -6.663  0.1023E-01  0.1023E-01  0.7674E-01  0.7674E-01
     -6.564  0.2841E-02  0.2841E-02  0.7703E-01  0.7703E-01
     -6.465  0.1144E-01  0.1144E-01  0.7816E-01  0.7816E-01
     -6.366  0.2607E-01  0.2607E-01  0.8074E-01  0.8074E-01
     -6.267  0.5345E-02  0.5345E-02  0.8127E-01  0.8127E-01
     -6.169  0.1801E-01  0.1801E-01  0.8305E-01  0.8305E-01
     -6.070  0.1029E-01  0.1029E-01  0.8406E-01  0.8406E-01
     -5.971  0.8847E-02  0.8847E-02  0.8494E-01  0.8494E-01
     -5.872  0.1045E-02  0.1045E-02  0.8504E-01  0.8504E-01
     -5.773  0.1070E-01  0.1070E-01  0.8610E-01  0.8610E-01
     -5.674  0.2465E-01  0.2465E-01  0.8854E-01  0.8854E-01
     -5.575  0.1865E-01  0.1865E-01  0.9038E-01  0.9038E-01
     -5.476  0.6205E-02  0.6205E-02  0.9100E-01  0.9100E-01
     -5.377  0.4124E-03  0.4124E-03  0.9104E-01  0.9104E-01
     -5.278  0.1082E-01  0.1082E-01  0.9211E-01  0.9211E-01
     -5.179  0.1032E-01  0.1032E-01  0.9313E-01  0.9313E-01
     -5.080  0.8407E-02  0.8407E-02  0.9396E-01  0.9396E-01
     -4.982  0.9468E-02  0.9468E-02  0.9490E-01  0.9490E-01
     -4.883  0.2066E-01  0.2066E-01  0.9694E-01  0.9694E-01
     -4.784  0.6680E-02  0.6680E-02  0.9760E-01  0.9760E-01
     -4.685  0.1594E-01  0.1594E-01  0.9918E-01  0.9918E-01
     -4.586  0.1206E-01  0.1206E-01  0.1004E+00  0.1004E+00
     -4.487  0.2187E-01  0.2187E-01  0.1025E+00  0.1025E+00
     -4.388  0.1662E-01  0.1662E-01  0.1042E+00  0.1042E+00
     -4.289  0.2371E-01  0.2371E-01  0.1065E+00  0.1065E+00
     -4.190  0.1453E-01  0.1453E-01  0.1080E+00  0.1080E+00
     -4.091  0.2355E-01  0.2355E-01  0.1103E+00  0.1103E+00
     -3.992  0.1766E-01  0.1766E-01  0.1120E+00  0.1120E+00
     -3.893  0.1509E-01  0.1509E-01  0.1135E+00  0.1135E+00
     -3.795  0.2137E-01  0.2137E-01  0.1156E+00  0.1156E+00
     -3.696  0.2883E-01  0.2883E-01  0.1185E+00  0.1185E+00
     -3.597  0.1991E-01  0.1991E-01  0.1205E+00  0.1205E+00
     -3.498  0.2791E-01  0.2791E-01  0.1232E+00  0.1232E+00
     -3.399  0.2377E-01  0.2377E-01  0.1256E+00  0.1256E+00
     -3.300  0.7790E-02  0.7790E-02  0.1263E+00  0.1263E+00
     -3.201  0.1266E-01  0.1266E-01  0.1276E+00  0.1276E+00
     -3.102  0.4055E-02  0.4055E-02  0.1280E+00  0.1280E+00
     -3.003  0.2010E-04  0.2010E-04  0.1280E+00  0.1280E+00
     -2.904  0.3773E-02  0.3773E-02  0.1284E+00  0.1284E+00
     -2.805  0.6267E-02  0.6267E-02  0.1290E+00  0.1290E+00
     -2.706  0.3570E-02  0.3570E-02  0.1293E+00  0.1293E+00
     -2.608  0.1274E-01  0.1274E-01  0.1306E+00  0.1306E+00
     -2.509  0.3962E-02  0.3962E-02  0.1310E+00  0.1310E+00
     -2.410  0.2581E-02  0.2581E-02  0.1313E+00  0.1313E+00
     -2.311  0.1476E-01  0.1476E-01  0.1327E+00  0.1327E+00
     -2.212  0.5846E-02  0.5846E-02  0.1333E+00  0.1333E+00
     -2.113  0.1571E-01  0.1571E-01  0.1348E+00  0.1348E+00
     -2.014  0.1546E-02  0.1546E-02  0.1350E+00  0.1350E+00
     -1.915  0.4981E-06  0.4981E-06  0.1350E+00  0.1350E+00
     -1.816  0.1098E-12  0.1098E-12  0.1350E+00  0.1350E+00
     -1.717  0.0000E+00  0.0000E+00  0.1350E+00  0.1350E+00
     -1.618  0.0000E+00  0.0000E+00  0.1350E+00  0.1350E+00
     -1.519  0.3356E-14  0.3356E-14  0.1350E+00  0.1350E+00
     -1.421  0.5759E-07  0.5759E-07  0.1350E+00  0.1350E+00
     -1.322  0.5640E-03  0.5640E-03  0.1351E+00  0.1351E+00
     -1.223  0.8395E-02  0.8395E-02  0.1359E+00  0.1359E+00
     -1.124  0.1150E-02  0.1150E-02  0.1360E+00  0.1360E+00
     -1.025  0.2834E-04  0.2834E-04  0.1360E+00  0.1360E+00
     -0.926  0.5147E-02  0.5147E-02  0.1365E+00  0.1365E+00
     -0.827  0.1128E-01  0.1128E-01  0.1376E+00  0.1376E+00
     -0.728  0.2217E-01  0.2217E-01  0.1398E+00  0.1398E+00
     -0.629  0.2283E-01  0.2283E-01  0.1421E+00  0.1421E+00
     -0.530  0.1308E-01  0.1308E-01  0.1434E+00  0.1434E+00
     -0.431  0.6644E-02  0.6644E-02  0.1440E+00  0.1440E+00
     -0.332  0.1724E-01  0.1724E-01  0.1457E+00  0.1457E+00
     -0.234  0.2571E-01  0.2571E-01  0.1483E+00  0.1483E+00
     -0.135  0.1823E-01  0.1823E-01  0.1501E+00  0.1501E+00
     -0.036  0.1106E-01  0.1106E-01  0.1512E+00  0.1512E+00
      0.063  0.2480E-01  0.2480E-01  0.1536E+00  0.1536E+00
      0.162  0.4120E-02  0.4120E-02  0.1540E+00  0.1540E+00
      0.261  0.1224E-01  0.1224E-01  0.1552E+00  0.1552E+00
      0.360  0.1939E-01  0.1939E-01  0.1572E+00  0.1572E+00
      0.459  0.2428E-01  0.2428E-01  0.1596E+00  0.1596E+00
      0.558  0.3169E-01  0.3169E-01  0.1627E+00  0.1627E+00
      0.657  0.1504E-01  0.1504E-01  0.1642E+00  0.1642E+00
      0.756  0.1431E-01  0.1431E-01  0.1656E+00  0.1656E+00
      0.855  0.1095E-01  0.1095E-01  0.1667E+00  0.1667E+00
      0.953  0.1230E-01  0.1230E-01  0.1679E+00  0.1679E+00
      1.052  0.1991E-01  0.1991E-01  0.1699E+00  0.1699E+00
      1.151  0.4143E-01  0.4143E-01  0.1740E+00  0.1740E+00
      1.250  0.2390E-01  0.2390E-01  0.1763E+00  0.1763E+00
      1.349  0.1484E-01  0.1484E-01  0.1778E+00  0.1778E+00
      1.448  0.2139E-01  0.2139E-01  0.1799E+00  0.1799E+00
      1.547  0.1520E-01  0.1520E-01  0.1814E+00  0.1814E+00
      1.646  0.1322E-01  0.1322E-01  0.1827E+00  0.1827E+00
      1.745  0.9994E-02  0.9994E-02  0.1837E+00  0.1837E+00
      1.844  0.2833E-02  0.2833E-02  0.1840E+00  0.1840E+00
      1.943  0.2119E-03  0.2119E-03  0.1840E+00  0.1840E+00
      2.042  0.7919E-02  0.7919E-02  0.1848E+00  0.1848E+00
      2.140  0.1025E-01  0.1025E-01  0.1858E+00  0.1858E+00
      2.239  0.1090E-01  0.1090E-01  0.1869E+00  0.1869E+00
      2.338  0.2072E-01  0.2072E-01  0.1889E+00  0.1889E+00
      2.437  0.5578E-03  0.5578E-03  0.1890E+00  0.1890E+00
      2.536  0.2705E-07  0.2706E-07  0.1890E+00  0.1890E+00
      2.635  0.8597E-15  0.8609E-15  0.1890E+00  0.1890E+00
      2.734  0.0000E+00  0.0000E+00  0.1890E+00  0.1890E+00
      2.833  0.0000E+00  0.0000E+00  0.1890E+00  0.1890E+00
      2.932  0.0000E+00  0.0000E+00  0.1890E+00  0.1890E+00
      3.031  0.0000E+00  0.0000E+00  0.1890E+00  0.1890E+00
      3.130  0.0000E+00  0.0000E+00  0.1890E+00  0.1890E+00
      3.229  0.0000E+00  0.0000E+00  0.1890E+00  0.1890E+00
      3.327  0.0000E+00  0.0000E+00  0.1890E+00  0.1890E+00
      3.426  0.0000E+00  0.0000E+00  0.1890E+00  0.1890E+00
      3.525  0.0000E+00  0.0000E+00  0.1890E+00  0.1890E+00
      3.624  0.0000E+00  0.0000E+00  0.1890E+00  0.1890E+00
