   53   53 1000    2
  0.6566630E+02  0.1325440E-08  0.1312890E-08  0.2000000E-08  0.2000000E-15
  1.000000000000000E-004
  CAR 
 TS_BlakPhos                             
    270      1    189
 
  0.1262379E-14  0.1262379E-14  0.1262379E-14  0.1000000E+01
    1      -24.701882    -24.701882
    2      -23.841663    -23.841663
    3      -17.607709    -17.607709
    4      -17.332030    -17.332030
    5      -16.747418    -16.747418
    6      -16.714626    -16.714626
    7      -16.617979    -16.617979
    8      -16.559145    -16.559145
    9      -16.055115    -16.055115
   10      -16.016909    -16.016909
   11      -16.007145    -16.007145
   12      -15.943762    -15.943762
   13      -15.330149    -15.330149
   14      -15.312456    -15.312456
   15      -14.720344    -14.720344
   16      -14.662483    -14.662483
   17      -14.619692    -14.619692
   18      -14.616665    -14.616665
   19      -14.596896    -14.596896
   20      -14.505326    -14.505326
   21      -14.499203    -14.499203
   22      -14.206114    -14.206114
   23      -14.190654    -14.190654
   24      -14.177035    -14.177035
   25      -14.159032    -14.159032
   26      -13.928030    -13.928030
   27      -13.866626    -13.866626
   28      -11.977334    -11.977334
   29      -11.912119    -11.912119
   30      -11.883293    -11.883293
   31      -11.875414    -11.875414
   32      -11.829738    -11.829738
   33      -11.820496    -11.820496
   34      -11.694911    -11.694911
   35      -11.646828    -11.646828
   36      -11.548063    -11.548063
   37      -11.393472    -11.393472
   38      -11.351498    -11.351498
   39      -11.342560    -11.342560
   40      -11.332213    -11.332213
   41      -11.260172    -11.260172
   42      -11.097026    -11.097026
   43      -11.055875    -11.055875
   44       -9.897492     -9.897492
   45       -9.825490     -9.825490
   46       -9.714365     -9.714365
   47       -9.693068     -9.693068
   48       -9.659815     -9.659815
   49       -9.648445     -9.648445
   50       -8.659826     -8.659826
   51       -8.495587     -8.495587
   52       -8.334184     -8.334184
   53       -8.305338     -8.305338
   54       -8.260123     -8.260123
   55       -8.080949     -8.080949
   56       -8.051541     -8.051541
   57       -7.981954     -7.981954
   58       -7.955896     -7.955896
   59       -7.869351     -7.869351
   60       -7.568832     -7.568832
   61       -7.537052     -7.537052
   62       -7.487978     -7.487978
   63       -7.468285     -7.468285
   64       -7.382696     -7.382696
   65       -7.365055     -7.365055
   66       -7.346987     -7.346987
   67       -7.335781     -7.335781
   68       -7.247759     -7.247759
   69       -7.204164     -7.204164
   70       -7.191527     -7.191527
   71       -7.158234     -7.158234
   72       -7.063891     -7.063891
   73       -7.015409     -7.015409
   74       -6.880124     -6.880124
   75       -6.852279     -6.852279
   76       -6.782860     -6.782860
   77       -6.686445     -6.686445
   78       -6.495518     -6.495518
   79       -6.438587     -6.438587
   80       -6.419631     -6.419631
   81       -6.399226     -6.399226
   82       -6.231916     -6.231916
   83       -6.223799     -6.223799
   84       -6.130724     -6.130724
   85       -6.025630     -6.025630
   86       -5.811144     -5.811144
   87       -5.741703     -5.741703
   88       -5.712355     -5.712355
   89       -5.688427     -5.688427
   90       -5.613599     -5.613599
   91       -5.577022     -5.577022
   92       -5.314594     -5.314594
   93       -5.255657     -5.255657
   94       -5.141993     -5.141993
   95       -4.974093     -4.974093
   96       -4.968209     -4.968209
   97       -4.941385     -4.941385
   98       -4.779854     -4.779854
   99       -4.746288     -4.746288
  100       -4.657723     -4.657723
  101       -4.572387     -4.572387
  102       -4.523528     -4.523528
  103       -4.478170     -4.478170
  104       -4.467426     -4.467426
  105       -4.351387     -4.351387
  106       -4.323086     -4.323086
  107       -4.309042     -4.309042
  108       -4.214135     -4.214135
  109       -4.159671     -4.159671
  110       -4.109708     -4.109708
  111       -4.098462     -4.098462
  112       -4.028289     -4.028289
  113       -3.961265     -3.961265
  114       -3.897174     -3.897174
  115       -3.811547     -3.811547
  116       -3.796071     -3.796071
  117       -3.785376     -3.785376
  118       -3.733127     -3.733127
  119       -3.699511     -3.699511
  120       -3.650596     -3.650596
  121       -3.593079     -3.593079
  122       -3.541845     -3.541845
  123       -3.510759     -3.510759
  124       -3.493507     -3.493507
  125       -3.472041     -3.472041
  126       -3.407687     -3.407687
  127       -3.285504     -3.285504
  128       -3.210566     -3.210566
  129       -2.892944     -2.892944
  130       -2.691970     -2.691970
  131       -2.617947     -2.617947
  132       -2.384708     -2.384708
  133       -2.332765     -2.332765
  134       -2.187898     -2.187898
  135       -2.151797     -2.151797
  136       -1.265372     -1.265372
  137       -0.926814     -0.926814
  138       -0.825439     -0.825439
  139       -0.789174     -0.789174
  140       -0.737429     -0.737429
  141       -0.695057     -0.695057
  142       -0.679947     -0.679947
  143       -0.597595     -0.597595
  144       -0.521446     -0.521446
  145       -0.359025     -0.359025
  146       -0.354443     -0.354443
  147       -0.304384     -0.304384
  148       -0.254495     -0.254495
  149       -0.220520     -0.220520
  150       -0.206483     -0.206483
  151       -0.091336     -0.091336
  152        0.007587      0.007587
  153        0.008241      0.008241
  154        0.039678      0.039678
  155        0.225596      0.225596
  156        0.273981      0.273981
  157        0.319785      0.319785
  158        0.385642      0.385642
  159        0.413117      0.413117
  160        0.473583      0.473583
  161        0.484965      0.484965
  162        0.501776      0.501776
  163        0.560154      0.560154
  164        0.575053      0.575053
  165        0.686906      0.686906
  166        0.744521      0.744521
  167        0.842038      0.842038
  168        0.912673      0.912673
  169        1.023897      1.023897
  170        1.043116      1.043116
  171        1.069380      1.069380
  172        1.090299      1.090299
  173        1.131644      1.131644
  174        1.139328      1.139328
  175        1.144600      1.144600
  176        1.195309      1.195309
  177        1.259476      1.259476
  178        1.355504      1.355504
  179        1.365118      1.365118
  180        1.405449      1.405449
  181        1.508500      1.508500
  182        1.542662      1.542662
  183        1.625342      1.625342
  184        1.724205      1.724205
  185        2.014801      2.014801
  186        2.108700      2.108700
  187        2.241901      2.241901
  188        2.261057      2.261057
  189        2.275336      2.275337
