       N       E                     dE             d eps       ncg     rms          rms(c)
RMM:   1     0.353786277940E+04    0.35379E+04   -0.72943E+04   378   0.928E+02
RMM:   2     0.122294927794E+04   -0.23149E+04   -0.25245E+04   378   0.203E+02
RMM:   3     0.426159223666E+03   -0.79679E+03   -0.10716E+04   378   0.118E+02
RMM:   4    -0.417454514988E+01   -0.43033E+03   -0.41768E+03   378   0.927E+01
RMM:   5    -0.174141775571E+03   -0.16997E+03   -0.14753E+03   378   0.602E+01
RMM:   6    -0.235530835982E+03   -0.61389E+02   -0.52573E+02   378   0.373E+01
RMM:   7    -0.258387364246E+03   -0.22857E+02   -0.20464E+02   378   0.231E+01
RMM:   8    -0.268543179147E+03   -0.10156E+02   -0.90179E+01   378   0.151E+01
RMM:   9    -0.273437805964E+03   -0.48946E+01   -0.44327E+01   378   0.104E+01
RMM:  10    -0.276348138567E+03   -0.29103E+01   -0.24403E+01   378   0.752E+00
RMM:  11    -0.277920035799E+03   -0.15719E+01   -0.14356E+01   378   0.549E+00
RMM:  12    -0.278819290441E+03   -0.89925E+00   -0.81436E+00   378   0.414E+00
RMM:  13    -0.279319257098E+03   -0.49997E+00   -0.46853E+00   378   0.305E+00
RMM:  14    -0.279611620884E+03   -0.29236E+00   -0.26950E+00   378   0.237E+00
RMM:  15    -0.280012037280E+03   -0.40042E+00   -0.39166E+00  1001   0.173E+00
RMM:  16    -0.280039589550E+03   -0.27552E-01   -0.24993E-01  1063   0.313E-01
RMM:  17    -0.280042965792E+03   -0.33762E-02   -0.31032E-02  1060   0.967E-02
RMM:  18    -0.280043481882E+03   -0.51609E-03   -0.57926E-03   939   0.370E-02
RMM:  19    -0.280043554334E+03   -0.72452E-04   -0.97025E-04   783   0.143E-02
RMM:  20    -0.280043575474E+03   -0.21140E-04   -0.23619E-04   648   0.641E-03    0.293E+01
RMM:  21    -0.289157488779E+03   -0.91139E+01   -0.68444E+00   767   0.459E+00    0.129E+01
RMM:  22    -0.288513318355E+03    0.64417E+00   -0.25863E+00   757   0.242E+00    0.916E+00
RMM:  23    -0.287876486618E+03    0.63683E+00   -0.11434E+00   769   0.186E+00    0.625E+00
RMM:  24    -0.287534844438E+03    0.34164E+00   -0.12963E+00   757   0.180E+00    0.354E+00
RMM:  25    -0.287483558902E+03    0.51286E-01   -0.22990E-01   778   0.793E-01    0.158E+00
RMM:  26    -0.287437876386E+03    0.45683E-01   -0.47120E-02   773   0.383E-01    0.704E-01
RMM:  27    -0.287426868565E+03    0.11008E-01   -0.30095E-02   763   0.235E-01    0.441E-01
RMM:  28    -0.287424974127E+03    0.18944E-02   -0.12134E-02   772   0.179E-01    0.254E-01
RMM:  29    -0.287423966009E+03    0.10081E-02   -0.31666E-03   758   0.988E-02    0.733E-02
RMM:  30    -0.287423989819E+03   -0.23811E-04   -0.56704E-04   804   0.441E-02    0.552E-02
RMM:  31    -0.287423965777E+03    0.24042E-04   -0.10401E-04   766   0.176E-02    0.284E-02
RMM:  32    -0.287423972845E+03   -0.70681E-05   -0.56756E-05   769   0.119E-02    0.103E-02
RMM:  33    -0.287423974951E+03   -0.21058E-05   -0.77202E-06   681   0.543E-03    0.584E-03
RMM:  34    -0.287423975391E+03   -0.44032E-06   -0.25977E-06   516   0.322E-03
   1 F= -.28741958E+03 E0= -.28741958E+03  d E =-.287420E+03  mag=     0.0002
       N       E                     dE             d eps       ncg     rms          rms(c)
RMM:   1    -0.276504436733E+03    0.10920E+02   -0.26030E+02   906   0.208E+01    0.122E+01
RMM:   2    -0.289387571292E+03   -0.12883E+02   -0.91951E+01   781   0.133E+01    0.737E+00
RMM:   3    -0.288770882939E+03    0.61669E+00   -0.74644E+00   837   0.536E+00    0.550E+00
RMM:   4    -0.288555209683E+03    0.21567E+00   -0.94400E-01   919   0.130E+00    0.424E+00
RMM:   5    -0.288606883695E+03   -0.51674E-01   -0.11906E+00   771   0.131E+00    0.333E+00
RMM:   6    -0.288470095216E+03    0.13679E+00   -0.27389E-01   788   0.700E-01    0.138E+00
RMM:   7    -0.288474891663E+03   -0.47964E-02   -0.21862E-01   794   0.542E-01    0.972E-01
RMM:   8    -0.288471311795E+03    0.35799E-02   -0.50454E-02   902   0.239E-01    0.820E-01
RMM:   9    -0.288461431517E+03    0.98803E-02   -0.27660E-02   781   0.200E-01    0.331E-01
RMM:  10    -0.288463649760E+03   -0.22182E-02   -0.86613E-03   791   0.124E-01    0.195E-01
RMM:  11    -0.288463668139E+03   -0.18380E-04   -0.21444E-03   805   0.610E-02    0.813E-02
RMM:  12    -0.288463956976E+03   -0.28884E-03   -0.75157E-04   823   0.293E-02    0.985E-02
RMM:  13    -0.288463913404E+03    0.43571E-04   -0.12989E-04   739   0.163E-02    0.111E-01
RMM:  14    -0.288464202734E+03   -0.28933E-03   -0.52596E-04   768   0.284E-02    0.117E-01
RMM:  15    -0.288464360125E+03   -0.15739E-03   -0.21961E-04   719   0.172E-02    0.138E-01
RMM:  16    -0.288464471495E+03   -0.11137E-03   -0.89974E-05   672   0.129E-02    0.157E-01
RMM:  17    -0.288464681407E+03   -0.20991E-03   -0.87354E-05   676   0.119E-02    0.177E-01
RMM:  18    -0.288465338629E+03   -0.65722E-03   -0.25381E-04   704   0.215E-02    0.213E-01
RMM:  19    -0.288463275442E+03    0.20632E-02   -0.41191E-04   739   0.449E-02    0.168E-01
RMM:  20    -0.288462519479E+03    0.75596E-03   -0.48685E-04   721   0.310E-02    0.115E-01
RMM:  21    -0.288461227343E+03    0.12921E-02   -0.16792E-03   766   0.580E-02    0.550E-02
RMM:  22    -0.288463610636E+03   -0.23833E-02   -0.32090E-04   753   0.538E-02    0.395E-02
RMM:  23    -0.288463613637E+03   -0.30014E-05   -0.35971E-05   605   0.620E-03    0.439E-02
RMM:  24    -0.288463480130E+03    0.13351E-03   -0.94951E-05   667   0.184E-02    0.500E-02
RMM:  25    -0.288463607754E+03   -0.12762E-03   -0.17596E-05   644   0.136E-02    0.515E-02
RMM:  26    -0.288463601274E+03    0.64806E-05   -0.62861E-06   548   0.412E-03    0.401E-02
RMM:  27    -0.288463584570E+03    0.16703E-04   -0.52652E-05   656   0.117E-02    0.259E-02
RMM:  28    -0.288463598779E+03   -0.14209E-04   -0.16188E-05   635   0.102E-02    0.204E-02
RMM:  29    -0.288463505694E+03    0.93085E-04   -0.65262E-05   658   0.154E-02    0.146E-02
RMM:  30    -0.288463589621E+03   -0.83927E-04   -0.10495E-05   623   0.107E-02    0.799E-03
RMM:  31    -0.288463583822E+03    0.57987E-05   -0.97564E-06   602   0.863E-03    0.314E-03
RMM:  32    -0.288463595253E+03   -0.11431E-04   -0.99517E-07   452   0.323E-03    0.311E-03
RMM:  33    -0.288463593854E+03    0.13989E-05   -0.83943E-07   484   0.285E-03    0.129E-03
RMM:  34    -0.288463596061E+03   -0.22068E-05   -0.10123E-07   375   0.101E-03    0.776E-04
RMM:  35    -0.288463596262E+03   -0.20111E-06   -0.42061E-08   327   0.586E-04
   2 F= -.28841777E+03 E0= -.28841777E+03  d E =-.998189E+00  mag=    -0.0000
       N       E                     dE             d eps       ncg     rms          rms(c)
RMM:   1    -0.289853168607E+03   -0.13896E+01   -0.64034E+01   758   0.124E+01    0.213E+00
RMM:   2    -0.289176212797E+03    0.67696E+00   -0.14732E+00   764   0.188E+00    0.262E+00
RMM:   3    -0.289098748663E+03    0.77464E-01   -0.57509E-02   825   0.370E-01    0.200E+00
RMM:   4    -0.289082623321E+03    0.16125E-01   -0.22553E-01   759   0.573E-01    0.969E-01
RMM:   5    -0.289145992604E+03   -0.63369E-01   -0.15286E-01   782   0.441E-01    0.180E+00
RMM:   6    -0.289097309928E+03    0.48683E-01   -0.18531E-02   756   0.196E-01    0.110E+00
RMM:   7    -0.289081647445E+03    0.15662E-01   -0.24005E-02   776   0.166E-01    0.507E-01
RMM:   8    -0.289080439764E+03    0.12077E-02   -0.63513E-03   840   0.800E-02    0.318E-01
RMM:   9    -0.289079518333E+03    0.92143E-03   -0.33665E-03   770   0.647E-02    0.129E-01
RMM:  10    -0.289079517838E+03    0.49553E-06   -0.15563E-03   804   0.425E-02    0.296E-02
RMM:  11    -0.289079562292E+03   -0.44455E-04   -0.24059E-04   823   0.173E-02    0.180E-02
RMM:  12    -0.289079563797E+03   -0.15044E-05   -0.16840E-05   677   0.551E-03    0.131E-02
RMM:  13    -0.289079564722E+03   -0.92589E-06   -0.22743E-05   668   0.583E-03    0.791E-03
RMM:  14    -0.289079562995E+03    0.17277E-05   -0.29921E-06   537   0.281E-03    0.123E-03
RMM:  15    -0.289079563353E+03   -0.35826E-06   -0.78085E-07   460   0.164E-03
   3 F= -.28904196E+03 E0= -.28904196E+03  d E =-.162238E+01  mag=    -0.0000
       N       E                     dE             d eps       ncg     rms          rms(c)
RMM:   1    -0.289698184490E+03   -0.61862E+00   -0.28457E+01   760   0.856E+00    0.121E+00
RMM:   2    -0.289457818437E+03    0.24037E+00   -0.47210E-01   762   0.110E+00    0.142E+00
RMM:   3    -0.289441076257E+03    0.16742E-01   -0.23383E-02   884   0.209E-01    0.115E+00
RMM:   4    -0.289449177973E+03   -0.81017E-02   -0.11180E-01   758   0.399E-01    0.778E-01
RMM:   5    -0.289454605120E+03   -0.54271E-02   -0.19000E-02   793   0.171E-01    0.834E-01
RMM:   6    -0.289444329357E+03    0.10276E-01   -0.47613E-03   756   0.911E-02    0.510E-01
RMM:   7    -0.289440949199E+03    0.33802E-02   -0.73945E-03   782   0.916E-02    0.200E-01
RMM:   8    -0.289440960214E+03   -0.11014E-04   -0.19894E-03   802   0.465E-02    0.999E-02
RMM:   9    -0.289440952835E+03    0.73785E-05   -0.68251E-04   748   0.302E-02    0.281E-02
RMM:  10    -0.289440978388E+03   -0.25553E-04   -0.18653E-04   796   0.156E-02    0.141E-02
RMM:  11    -0.289440980030E+03   -0.16418E-05   -0.13210E-05   630   0.505E-03    0.975E-03
RMM:  12    -0.289440980531E+03   -0.50142E-06   -0.82259E-06   609   0.402E-03
   4 F= -.28940851E+03 E0= -.28940851E+03  d E =-.198894E+01  mag=    -0.0000
       N       E                     dE             d eps       ncg     rms          rms(c)
RMM:   1    -0.293182185928E+03   -0.37412E+01   -0.16442E+02   791   0.184E+01    0.467E+00
RMM:   2    -0.290916639844E+03    0.22655E+01   -0.85668E+00   761   0.414E+00    0.654E+00
RMM:   3    -0.290248871217E+03    0.66777E+00   -0.32408E-01   774   0.109E+00    0.493E+00
RMM:   4    -0.289956050016E+03    0.29282E+00   -0.30499E-01   756   0.755E-01    0.282E+00
RMM:   5    -0.290164500328E+03   -0.20845E+00   -0.13452E+00   760   0.129E+00    0.468E+00
RMM:   6    -0.290106818309E+03    0.57682E-01   -0.17194E-01   794   0.521E-01    0.356E+00
RMM:   7    -0.289963769788E+03    0.14305E+00   -0.50210E-02   758   0.275E-01    0.219E+00
RMM:   8    -0.289898617545E+03    0.65152E-01   -0.11831E-01   769   0.377E-01    0.745E-01
RMM:   9    -0.289899374296E+03   -0.75675E-03   -0.31173E-02   822   0.208E-01    0.327E-01
RMM:  10    -0.289900321973E+03   -0.94768E-03   -0.90852E-03   810   0.108E-01    0.148E-01
RMM:  11    -0.289900848076E+03   -0.52610E-03   -0.24294E-03   868   0.617E-02    0.176E-01
RMM:  12    -0.289900206181E+03    0.64190E-03   -0.28298E-04   776   0.235E-02    0.120E-01
RMM:  13    -0.289900036082E+03    0.17010E-03   -0.76907E-05   769   0.119E-02    0.954E-02
RMM:  14    -0.289899812929E+03    0.22315E-03   -0.18514E-04   739   0.151E-02    0.425E-02
RMM:  15    -0.289899816957E+03   -0.40286E-05   -0.22690E-05   679   0.783E-03    0.402E-02
RMM:  16    -0.289899791052E+03    0.25905E-04   -0.17348E-05   673   0.476E-03    0.280E-02
RMM:  17    -0.289899770257E+03    0.20795E-04   -0.30698E-05   677   0.649E-03    0.676E-03
RMM:  18    -0.289899771988E+03   -0.17310E-05   -0.66696E-06   590   0.362E-03    0.254E-03
RMM:  19    -0.289899772764E+03   -0.77595E-06   -0.16525E-06   501   0.213E-03
   5 F= -.28987918E+03 E0= -.28987918E+03  d E =-.245960E+01  mag=    -0.0000
       N       E                     dE             d eps       ncg     rms          rms(c)
RMM:   1    -0.289939915165E+03   -0.40143E-01   -0.22313E+01   768   0.762E+00    0.138E+00
RMM:   2    -0.289831928151E+03    0.10799E+00   -0.31915E-01   758   0.991E-01    0.834E-01
RMM:   3    -0.289822296236E+03    0.96319E-02   -0.26001E-02   852   0.219E-01    0.668E-01
RMM:   4    -0.289823947608E+03   -0.16514E-02   -0.60012E-03   776   0.124E-01    0.456E-01
RMM:   5    -0.289826288984E+03   -0.23414E-02   -0.56099E-03   758   0.122E-01    0.208E-01
RMM:   6    -0.289826150089E+03    0.13889E-03   -0.17292E-03   758   0.648E-02    0.773E-02
RMM:   7    -0.289826170803E+03   -0.20713E-04   -0.36446E-04   822   0.237E-02    0.686E-02
RMM:   8    -0.289826175696E+03   -0.48937E-05   -0.22523E-04   758   0.236E-02    0.194E-02
RMM:   9    -0.289826185712E+03   -0.10015E-04   -0.26282E-05   694   0.968E-03    0.843E-03
RMM:  10    -0.289826185975E+03   -0.26305E-06   -0.58199E-06   613   0.350E-03
   6 F= -.28980128E+03 E0= -.28980128E+03  d E =-.238170E+01  mag=    -0.0000
       N       E                     dE             d eps       ncg     rms          rms(c)
RMM:   1    -0.289856650129E+03   -0.30464E-01   -0.90565E-01   768   0.159E+00    0.206E-01
RMM:   2    -0.289852176126E+03    0.44740E-02   -0.11944E-02   762   0.189E-01    0.180E-01
RMM:   3    -0.289852082126E+03    0.94001E-04   -0.10121E-03   822   0.434E-02    0.123E-01
RMM:   4    -0.289852219950E+03   -0.13782E-03   -0.24573E-04   741   0.279E-02    0.597E-02
RMM:   5    -0.289852352138E+03   -0.13219E-03   -0.11233E-04   705   0.210E-02    0.221E-02
RMM:   6    -0.289852351299E+03    0.83890E-06   -0.18228E-05   701   0.624E-03    0.156E-02
RMM:   7    -0.289852351343E+03   -0.44167E-07   -0.12363E-05   671   0.537E-03    0.659E-03
RMM:   8    -0.289852352664E+03   -0.13209E-05   -0.29305E-06   538   0.322E-03    0.239E-03
RMM:   9    -0.289852352786E+03   -0.12229E-06   -0.63514E-07   473   0.155E-03
   7 F= -.28982831E+03 E0= -.28982831E+03  d E =-.240873E+01  mag=     0.0000
       N       E                     dE             d eps       ncg     rms          rms(c)
RMM:   1    -0.290017924137E+03   -0.16557E+00   -0.31426E+01   764   0.863E+00    0.128E+00
RMM:   2    -0.289922069348E+03    0.95855E-01   -0.43747E-01   759   0.118E+00    0.118E+00
RMM:   3    -0.289908694319E+03    0.13375E-01   -0.43885E-02   883   0.273E-01    0.901E-01
RMM:   4    -0.289898739054E+03    0.99553E-02   -0.58554E-02   761   0.295E-01    0.390E-01
RMM:   5    -0.289897079135E+03    0.16599E-02   -0.62492E-03   765   0.119E-01    0.220E-01
RMM:   6    -0.289896121878E+03    0.95726E-03   -0.11859E-03   764   0.511E-02    0.141E-01
RMM:   7    -0.289895912726E+03    0.20915E-03   -0.11351E-03   771   0.386E-02    0.770E-02
RMM:   8    -0.289896019108E+03   -0.10638E-03   -0.22083E-04   820   0.215E-02    0.406E-02
RMM:   9    -0.289896023199E+03   -0.40909E-05   -0.87828E-05   756   0.143E-02    0.232E-02
RMM:  10    -0.289896021993E+03    0.12064E-05   -0.22092E-05   691   0.781E-03    0.101E-02
RMM:  11    -0.289896023962E+03   -0.19691E-05   -0.15797E-05   622   0.513E-03    0.557E-03
RMM:  12    -0.289896023580E+03    0.38151E-06   -0.26969E-06   510   0.291E-03
   8 F= -.28987441E+03 E0= -.28987441E+03  d E =-.461067E-01  mag=    -0.0000
       N       E                     dE             d eps       ncg     rms          rms(c)
RMM:   1    -0.289967853238E+03   -0.71829E-01   -0.27298E+00   766   0.262E+00    0.482E-01
RMM:   2    -0.289961111212E+03    0.67420E-02   -0.35387E-02   758   0.359E-01    0.354E-01
RMM:   3    -0.289960064166E+03    0.10470E-02   -0.59431E-03   851   0.939E-02    0.250E-01
RMM:   4    -0.289959092418E+03    0.97175E-03   -0.20266E-03   762   0.605E-02    0.113E-01
RMM:   5    -0.289959064432E+03    0.27987E-04   -0.67979E-04   758   0.388E-02    0.468E-02
RMM:   6    -0.289959052974E+03    0.11457E-04   -0.89064E-05   730   0.153E-02    0.337E-02
RMM:   7    -0.289959047155E+03    0.58188E-05   -0.91553E-05   730   0.123E-02    0.184E-02
RMM:   8    -0.289959046063E+03    0.10923E-05   -0.10136E-05   634   0.540E-03    0.114E-02
RMM:   9    -0.289959049416E+03   -0.33534E-05   -0.11948E-05   662   0.505E-03    0.433E-03
RMM:  10    -0.289959049536E+03   -0.12001E-06   -0.73287E-07   491   0.213E-03
   9 F= -.28993672E+03 E0= -.28993672E+03  d E =-.108416E+00  mag=     0.0000
       N       E                     dE             d eps       ncg     rms          rms(c)
RMM:   1    -0.290200199987E+03   -0.24115E+00   -0.16123E+01   760   0.677E+00    0.851E-01
RMM:   2    -0.290130374455E+03    0.69826E-01   -0.22697E-01   766   0.872E-01    0.925E-01
RMM:   3    -0.290123030709E+03    0.73437E-02   -0.20114E-02   940   0.186E-01    0.739E-01
RMM:   4    -0.290122628947E+03    0.40176E-03   -0.15300E-02   758   0.163E-01    0.409E-01
RMM:   5    -0.290126703905E+03   -0.40750E-02   -0.82933E-03   778   0.125E-01    0.356E-01
RMM:   6    -0.290124522491E+03    0.21814E-02   -0.14272E-03   758   0.567E-02    0.180E-01
RMM:   7    -0.290124101520E+03    0.42097E-03   -0.11748E-03   766   0.399E-02    0.531E-02
RMM:   8    -0.290124143694E+03   -0.42173E-04   -0.17691E-04   762   0.195E-02    0.287E-02
RMM:   9    -0.290124141870E+03    0.18234E-05   -0.43661E-05   719   0.995E-03    0.180E-02
RMM:  10    -0.290124139667E+03    0.22034E-05   -0.24363E-05   684   0.690E-03    0.435E-03
RMM:  11    -0.290124140651E+03   -0.98393E-06   -0.47242E-06   550   0.325E-03
  10 F= -.29009944E+03 E0= -.29009944E+03  d E =-.162716E+00  mag=     0.0000
       N       E                     dE             d eps       ncg     rms          rms(c)
RMM:   1    -0.290238848421E+03   -0.11471E+00   -0.10668E+01   762   0.553E+00    0.669E-01
RMM:   2    -0.290195478475E+03    0.43370E-01   -0.14727E-01   762   0.733E-01    0.718E-01
RMM:   3    -0.290191197448E+03    0.42810E-02   -0.15175E-02   941   0.160E-01    0.572E-01
RMM:   4    -0.290191248233E+03   -0.50786E-04   -0.66673E-03   756   0.114E-01    0.327E-01
RMM:   5    -0.290194154427E+03   -0.29062E-02   -0.53273E-03   774   0.107E-01    0.257E-01
RMM:   6    -0.290193028127E+03    0.11263E-02   -0.71991E-04   762   0.424E-02    0.136E-01
RMM:   7    -0.290192774116E+03    0.25401E-03   -0.47934E-04   759   0.260E-02    0.518E-02
RMM:   8    -0.290192783640E+03   -0.95237E-05   -0.18223E-04   760   0.180E-02    0.189E-02
RMM:   9    -0.290192785226E+03   -0.15868E-05   -0.21812E-05   689   0.803E-03    0.129E-02
RMM:  10    -0.290192784268E+03    0.95815E-06   -0.12472E-05   639   0.522E-03    0.376E-03
RMM:  11    -0.290192784914E+03   -0.64580E-06   -0.31716E-06   530   0.291E-03
  11 F= -.29016625E+03 E0= -.29016625E+03  d E =-.229529E+00  mag=    -0.0000
       N       E                     dE             d eps       ncg     rms          rms(c)
RMM:   1    -0.290336534642E+03   -0.14375E+00   -0.19515E+01   764   0.721E+00    0.113E+00
RMM:   2    -0.290300371322E+03    0.36163E-01   -0.38809E-01   760   0.981E-01    0.167E+00
RMM:   3    -0.290255991388E+03    0.44380E-01   -0.27579E-02   829   0.237E-01    0.113E+00
RMM:   4    -0.290244678576E+03    0.11313E-01   -0.11643E-02   770   0.142E-01    0.721E-01
RMM:   5    -0.290249731451E+03   -0.50529E-02   -0.29815E-02   770   0.205E-01    0.501E-01
RMM:   6    -0.290251212574E+03   -0.14811E-02   -0.53700E-03   776   0.108E-01    0.468E-01
RMM:   7    -0.290247710707E+03    0.35019E-02   -0.29388E-03   758   0.678E-02    0.118E-01
RMM:   8    -0.290247778087E+03   -0.67380E-04   -0.44176E-04   740   0.317E-02    0.668E-02
RMM:   9    -0.290247778748E+03   -0.66052E-06   -0.16793E-04   752   0.187E-02    0.441E-02
RMM:  10    -0.290247765015E+03    0.13733E-04   -0.13520E-04   708   0.146E-02    0.101E-02
RMM:  11    -0.290247770241E+03   -0.52259E-05   -0.21896E-05   678   0.609E-03    0.107E-02
RMM:  12    -0.290247768478E+03    0.17630E-05   -0.41772E-06   543   0.297E-03    0.298E-03
RMM:  13    -0.290247768742E+03   -0.26369E-06   -0.81253E-07   487   0.186E-03
  12 F= -.29022139E+03 E0= -.29022139E+03  d E =-.551343E-01  mag=     0.0000
       N       E                     dE             d eps       ncg     rms          rms(c)
RMM:   1    -0.290286525781E+03   -0.38757E-01   -0.63631E+00   770   0.420E+00    0.520E-01
RMM:   2    -0.290263040704E+03    0.23485E-01   -0.94508E-02   766   0.500E-01    0.730E-01
RMM:   3    -0.290256203280E+03    0.68374E-02   -0.92345E-03   916   0.121E-01    0.507E-01
RMM:   4    -0.290255288541E+03    0.91474E-03   -0.24969E-03   756   0.656E-02    0.301E-01
RMM:   5    -0.290257947910E+03   -0.26594E-02   -0.41964E-03   774   0.934E-02    0.221E-01
RMM:   6    -0.290257639383E+03    0.30853E-03   -0.62633E-04   764   0.434E-02    0.135E-01
RMM:   7    -0.290257405946E+03    0.23344E-03   -0.18958E-04   722   0.190E-02    0.590E-02
RMM:   8    -0.290257381117E+03    0.24829E-04   -0.97701E-05   705   0.142E-02    0.258E-02
RMM:   9    -0.290257380456E+03    0.66083E-06   -0.18730E-05   663   0.743E-03    0.163E-02
RMM:  10    -0.290257378878E+03    0.15779E-05   -0.14973E-05   628   0.534E-03    0.328E-03
RMM:  11    -0.290257379959E+03   -0.10808E-05   -0.25285E-06   508   0.257E-03    0.311E-03
RMM:  12    -0.290257380096E+03   -0.13712E-06   -0.62346E-07   475   0.165E-03
  13 F= -.29023138E+03 E0= -.29023138E+03  d E =-.651319E-01  mag=     0.0000
       N       E                     dE             d eps       ncg     rms          rms(c)
RMM:   1    -0.290267474960E+03   -0.10095E-01   -0.17089E+01   764   0.689E+00    0.381E+00
RMM:   2    -0.291083307312E+03   -0.81583E+00   -0.16760E+00   764   0.157E+00    0.491E+00
RMM:   3    -0.290431923350E+03    0.65138E+00   -0.24420E-01   756   0.731E-01    0.273E+00
RMM:   4    -0.290307504238E+03    0.12442E+00   -0.11370E-01   769   0.434E-01    0.152E+00
RMM:   5    -0.290270696222E+03    0.36808E-01   -0.44953E-02   817   0.245E-01    0.932E-01
RMM:   6    -0.290264307467E+03    0.63888E-02   -0.87982E-03   817   0.127E-01    0.603E-01
RMM:   7    -0.290266769866E+03   -0.24624E-02   -0.13712E-02   762   0.150E-01    0.421E-01
RMM:   8    -0.290265519419E+03    0.12504E-02   -0.13651E-03   824   0.621E-02    0.259E-01
RMM:   9    -0.290264729060E+03    0.79036E-03   -0.35999E-04   758   0.267E-02    0.111E-01
RMM:  10    -0.290264641797E+03    0.87263E-04   -0.22527E-04   758   0.211E-02    0.219E-02
RMM:  11    -0.290264664762E+03   -0.22965E-04   -0.24178E-05   692   0.872E-03    0.134E-02
RMM:  12    -0.290264665448E+03   -0.68551E-06   -0.76294E-06   586   0.460E-03
  14 F= -.29023929E+03 E0= -.29023926E+03  d E =-.790655E-02  mag=    -0.0000
       N       E                     dE             d eps       ncg     rms          rms(c)
RMM:   1    -0.290287611676E+03   -0.22947E-01   -0.67090E+00   766   0.426E+00    0.864E-01
RMM:   2    -0.290296146570E+03   -0.85349E-02   -0.14072E-01   758   0.553E-01    0.141E+00
RMM:   3    -0.290256353540E+03    0.39793E-01   -0.15711E-02   774   0.176E-01    0.729E-01
RMM:   4    -0.290251136166E+03    0.52174E-02   -0.68993E-03   777   0.109E-01    0.353E-01
RMM:   5    -0.290253576894E+03   -0.24407E-02   -0.40385E-03   810   0.830E-02    0.318E-01
RMM:   6    -0.290253808043E+03   -0.23115E-03   -0.12901E-03   760   0.606E-02    0.147E-01
RMM:   7    -0.290253654954E+03    0.15309E-03   -0.24677E-04   750   0.244E-02    0.332E-02
RMM:   8    -0.290253666775E+03   -0.11821E-04   -0.30366E-05   680   0.101E-02    0.235E-02
RMM:   9    -0.290253663880E+03    0.28954E-05   -0.51307E-05   714   0.112E-02    0.571E-03
RMM:  10    -0.290253664898E+03   -0.10188E-05   -0.36537E-06   534   0.384E-03    0.408E-03
RMM:  11    -0.290253665016E+03   -0.11725E-06   -0.11159E-06   492   0.221E-03
  15 F= -.29022876E+03 E0= -.29022866E+03  d E =0.262350E-02  mag=     0.0000
       N       E                     dE             d eps       ncg     rms          rms(c)
RMM:   1    -0.290313723645E+03   -0.60059E-01   -0.17293E+01   773   0.695E+00    0.232E+00
RMM:   2    -0.290535724620E+03   -0.22200E+00   -0.61743E-01   757   0.113E+00    0.295E+00
RMM:   3    -0.290305170577E+03    0.23055E+00   -0.87815E-02   760   0.429E-01    0.152E+00
RMM:   4    -0.290265862213E+03    0.39308E-01   -0.42445E-02   773   0.258E-01    0.783E-01
RMM:   5    -0.290260671602E+03    0.51906E-02   -0.14871E-02   844   0.150E-01    0.507E-01
RMM:   6    -0.290261082248E+03   -0.41065E-03   -0.50453E-03   756   0.120E-01    0.269E-01
RMM:   7    -0.290262749269E+03   -0.16670E-02   -0.32020E-03   758   0.909E-02    0.108E-01
RMM:   8    -0.290262543819E+03    0.20545E-03   -0.30721E-04   766   0.273E-02    0.660E-02
RMM:   9    -0.290262486254E+03    0.57565E-04   -0.91310E-05   759   0.141E-02    0.303E-02
RMM:  10    -0.290262522188E+03   -0.35935E-04   -0.89696E-05   750   0.152E-02    0.328E-02
RMM:  11    -0.290262503188E+03    0.19001E-04   -0.17385E-05   665   0.632E-03    0.488E-03
RMM:  12    -0.290262504629E+03   -0.14411E-05   -0.32719E-06   525   0.273E-03    0.593E-03
RMM:  13    -0.290262504279E+03    0.35031E-06   -0.95950E-07   494   0.191E-03
  16 F= -.29023335E+03 E0= -.29023329E+03  d E =-.459142E-02  mag=     0.0000
       N       E                     dE             d eps       ncg     rms          rms(c)
RMM:   1    -0.290267162375E+03   -0.46577E-02   -0.11190E-01   770   0.562E-01    0.774E-02
RMM:   2    -0.290266603300E+03    0.55907E-03   -0.15261E-03   767   0.674E-02    0.685E-02
RMM:   3    -0.290266577684E+03    0.25616E-04   -0.19297E-04   813   0.182E-02    0.528E-02
RMM:   4    -0.290266573072E+03    0.46118E-05   -0.28528E-05   687   0.824E-03    0.368E-02
RMM:   5    -0.290266599002E+03   -0.25930E-04   -0.79117E-05   692   0.134E-02    0.147E-02
RMM:   6    -0.290266596662E+03    0.23398E-05   -0.90778E-06   604   0.465E-03    0.780E-03
RMM:   7    -0.290266596204E+03    0.45808E-06   -0.16979E-06   494   0.243E-03
  17 F= -.29023781E+03 E0= -.29023775E+03  d E =-.905199E-02  mag=    -0.0000
       N       E                     dE             d eps       ncg     rms          rms(c)
RMM:   1    -0.290335190091E+03   -0.68593E-01   -0.11216E+01   774   0.539E+00    0.107E+00
RMM:   2    -0.290324990721E+03    0.10199E-01   -0.19324E-01   764   0.743E-01    0.134E+00
RMM:   3    -0.290285629295E+03    0.39361E-01   -0.25787E-02   822   0.207E-01    0.694E-01
RMM:   4    -0.290281697318E+03    0.39320E-02   -0.76986E-03   780   0.116E-01    0.446E-01
RMM:   5    -0.290285338890E+03   -0.36416E-02   -0.43853E-03   793   0.906E-02    0.432E-01
RMM:   6    -0.290284520449E+03    0.81844E-03   -0.34164E-03   758   0.903E-02    0.694E-02
RMM:   7    -0.290284605309E+03   -0.84860E-04   -0.24143E-04   778   0.306E-02    0.442E-02
RMM:   8    -0.290284594365E+03    0.10944E-04   -0.66870E-05   731   0.114E-02    0.257E-02
RMM:   9    -0.290284601730E+03   -0.73649E-05   -0.29368E-05   706   0.860E-03    0.110E-02
RMM:  10    -0.290284604132E+03   -0.24018E-05   -0.65652E-06   579   0.464E-03    0.422E-03
RMM:  11    -0.290284604238E+03   -0.10628E-06   -0.14974E-06   506   0.245E-03
  18 F= -.29025560E+03 E0= -.29025556E+03  d E =-.177854E-01  mag=    -0.0000
       N       E                     dE             d eps       ncg     rms          rms(c)
RMM:   1    -0.290286212484E+03   -0.16084E-02   -0.24168E+00   774   0.249E+00    0.356E-01
RMM:   2    -0.290274588744E+03    0.11624E-01   -0.29946E-02   776   0.309E-01    0.301E-01
RMM:   3    -0.290273908946E+03    0.67980E-03   -0.47045E-03   919   0.773E-02    0.257E-01
RMM:   4    -0.290274089769E+03   -0.18082E-03   -0.56071E-04   777   0.345E-02    0.184E-01
RMM:   5    -0.290274760694E+03   -0.67093E-03   -0.73788E-04   758   0.450E-02    0.936E-02
RMM:   6    -0.290274732881E+03    0.27813E-04   -0.25480E-04   758   0.253E-02    0.271E-02
RMM:   7    -0.290274734260E+03   -0.13786E-05   -0.35672E-05   702   0.879E-03    0.190E-02
RMM:   8    -0.290274736182E+03   -0.19228E-05   -0.15886E-05   672   0.606E-03    0.799E-03
RMM:   9    -0.290274736717E+03   -0.53480E-06   -0.32092E-06   530   0.318E-03
  19 F= -.29024565E+03 E0= -.29024562E+03  d E =-.783677E-02  mag=    -0.0000
       N       E                     dE             d eps       ncg     rms          rms(c)
RMM:   1    -0.290350656439E+03   -0.75920E-01   -0.15082E+01   766   0.630E+00    0.151E+00
RMM:   2    -0.290372026493E+03   -0.21370E-01   -0.33638E-01   762   0.858E-01    0.190E+00
RMM:   3    -0.290290196873E+03    0.81830E-01   -0.40371E-02   776   0.285E-01    0.100E+00
RMM:   4    -0.290277643115E+03    0.12554E-01   -0.18479E-02   780   0.168E-01    0.552E-01
RMM:   5    -0.290279320657E+03   -0.16775E-02   -0.92837E-03   803   0.113E-01    0.422E-01
RMM:   6    -0.290280183523E+03   -0.86287E-03   -0.35475E-03   756   0.969E-02    0.157E-01
RMM:   7    -0.290280497168E+03   -0.31365E-03   -0.75723E-04   778   0.444E-02    0.503E-02
RMM:   8    -0.290280475738E+03    0.21430E-04   -0.91872E-05   754   0.152E-02    0.324E-02
RMM:   9    -0.290280476704E+03   -0.96571E-06   -0.44510E-05   735   0.970E-03    0.184E-02
RMM:  10    -0.290280480688E+03   -0.39840E-05   -0.23750E-05   682   0.822E-03    0.652E-03
RMM:  11    -0.290280480331E+03    0.35611E-06   -0.45451E-06   552   0.355E-03
  20 F= -.29024938E+03 E0= -.29024938E+03  d E =-.373193E-02  mag=    -0.0000
       N       E                     dE             d eps       ncg     rms          rms(c)
RMM:   1    -0.290285846197E+03   -0.53655E-02   -0.31721E+00   766   0.290E+00    0.425E-01
RMM:   2    -0.290269914702E+03    0.15931E-01   -0.39060E-02   770   0.318E-01    0.383E-01
RMM:   3    -0.290268221469E+03    0.16932E-02   -0.58346E-03   911   0.874E-02    0.268E-01
RMM:   4    -0.290268495915E+03   -0.27445E-03   -0.75376E-04   773   0.385E-02    0.202E-01
RMM:   5    -0.290269463891E+03   -0.96798E-03   -0.11853E-03   756   0.526E-02    0.112E-01
RMM:   6    -0.290269378045E+03    0.85847E-04   -0.30326E-04   756   0.268E-02    0.383E-02
RMM:   7    -0.290269351677E+03    0.26367E-04   -0.55410E-05   704   0.108E-02    0.195E-02
RMM:   8    -0.290269353276E+03   -0.15991E-05   -0.15485E-05   682   0.612E-03    0.114E-02
RMM:   9    -0.290269353902E+03   -0.62605E-06   -0.91083E-06   626   0.480E-03
  21 F= -.29023735E+03 E0= -.29023734E+03  d E =0.830391E-02  mag=    -0.0000
       N       E                     dE             d eps       ncg     rms          rms(c)
RMM:   1    -0.290349095400E+03   -0.79742E-01   -0.11579E+01   766   0.549E+00    0.979E-01
RMM:   2    -0.290311406192E+03    0.37689E-01   -0.19629E-01   762   0.727E-01    0.122E+00
RMM:   3    -0.290285543495E+03    0.25863E-01   -0.19709E-02   827   0.188E-01    0.722E-01
RMM:   4    -0.290282374722E+03    0.31688E-02   -0.10378E-02   774   0.128E-01    0.411E-01
RMM:   5    -0.290287059134E+03   -0.46844E-02   -0.71457E-03   779   0.108E-01    0.394E-01
RMM:   6    -0.290285292904E+03    0.17662E-02   -0.18101E-03   756   0.644E-02    0.953E-02
RMM:   7    -0.290285386060E+03   -0.93156E-04   -0.35636E-04   775   0.275E-02    0.368E-02
RMM:   8    -0.290285401455E+03   -0.15394E-04   -0.50102E-05   707   0.116E-02    0.247E-02
RMM:   9    -0.290285398302E+03    0.31522E-05   -0.35784E-05   690   0.911E-03    0.862E-03
RMM:  10    -0.290285399730E+03   -0.14273E-05   -0.81634E-06   600   0.466E-03    0.500E-03
RMM:  11    -0.290285400032E+03   -0.30289E-06   -0.11516E-06   493   0.209E-03
  22 F= -.29025486E+03 E0= -.29025486E+03  d E =-.175165E-01  mag=    -0.0000
       N       E                     dE             d eps       ncg     rms          rms(c)
RMM:   1    -0.290361400334E+03   -0.76001E-01   -0.15754E+01   766   0.637E+00    0.124E+00
RMM:   2    -0.290321902767E+03    0.39498E-01   -0.30166E-01   762   0.881E-01    0.153E+00
RMM:   3    -0.290278499523E+03    0.43403E-01   -0.28148E-02   810   0.237E-01    0.908E-01
RMM:   4    -0.290271464115E+03    0.70354E-02   -0.17350E-02   772   0.161E-01    0.500E-01
RMM:   5    -0.290276685994E+03   -0.52219E-02   -0.11669E-02   780   0.130E-01    0.449E-01
RMM:   6    -0.290275134723E+03    0.15513E-02   -0.25211E-03   756   0.795E-02    0.131E-01
RMM:   7    -0.290275206297E+03   -0.71574E-04   -0.65712E-04   785   0.359E-02    0.416E-02
RMM:   8    -0.290275227192E+03   -0.20894E-04   -0.72600E-05   715   0.149E-02    0.284E-02
RMM:   9    -0.290275224706E+03    0.24862E-05   -0.51840E-05   709   0.107E-02    0.114E-02
RMM:  10    -0.290275226090E+03   -0.13839E-05   -0.12183E-05   640   0.558E-03    0.593E-03
RMM:  11    -0.290275226364E+03   -0.27447E-06   -0.14793E-06   504   0.239E-03
  23 F= -.29024635E+03 E0= -.29024635E+03  d E =-.900856E-02  mag=     0.0000
       N       E                     dE             d eps       ncg     rms          rms(c)
RMM:   1    -0.290384539669E+03   -0.10931E+00   -0.17123E+01   766   0.670E+00    0.120E+00
RMM:   2    -0.290311416973E+03    0.73123E-01   -0.29359E-01   761   0.853E-01    0.131E+00
RMM:   3    -0.290283904731E+03    0.27512E-01   -0.31137E-02   834   0.226E-01    0.809E-01
RMM:   4    -0.290280467454E+03    0.34373E-02   -0.15180E-02   770   0.152E-01    0.481E-01
RMM:   5    -0.290286017961E+03   -0.55505E-02   -0.10607E-02   775   0.134E-01    0.421E-01
RMM:   6    -0.290283248441E+03    0.27695E-02   -0.26792E-03   756   0.767E-02    0.129E-01
RMM:   7    -0.290283197053E+03    0.51388E-04   -0.86399E-04   780   0.380E-02    0.413E-02
RMM:   8    -0.290283243068E+03   -0.46015E-04   -0.97541E-05   754   0.175E-02    0.271E-02
RMM:   9    -0.290283241697E+03    0.13708E-05   -0.38378E-05   699   0.923E-03    0.158E-02
RMM:  10    -0.290283243665E+03   -0.19682E-05   -0.15625E-05   655   0.641E-03    0.448E-03
RMM:  11    -0.290283244637E+03   -0.97231E-06   -0.33989E-06   532   0.300E-03
  24 F= -.29025386E+03 E0= -.29025386E+03  d E =-.750154E-02  mag=    -0.0000
       N       E                     dE             d eps       ncg     rms          rms(c)
RMM:   1    -0.290282630388E+03    0.61328E-03   -0.79208E-02   766   0.462E-01    0.615E-02
RMM:   2    -0.290282183394E+03    0.44699E-03   -0.94478E-04   758   0.506E-02    0.464E-02
RMM:   3    -0.290282188734E+03   -0.53402E-05   -0.15889E-04   806   0.137E-02    0.376E-02
RMM:   4    -0.290282198123E+03   -0.93890E-05   -0.15363E-05   634   0.618E-03    0.247E-02
RMM:   5    -0.290282212188E+03   -0.14065E-04   -0.25865E-05   670   0.810E-03    0.756E-03
RMM:   6    -0.290282210382E+03    0.18060E-05   -0.36657E-06   548   0.292E-03    0.329E-03
RMM:   7    -0.290282210567E+03   -0.18523E-06   -0.56817E-07   454   0.170E-03
  25 F= -.29025277E+03 E0= -.29025277E+03  d E =-.641816E-02  mag=     0.0000
       N       E                     dE             d eps       ncg     rms          rms(c)
RMM:   1    -0.290311186671E+03   -0.28976E-01   -0.48569E+00   766   0.361E+00    0.509E-01
RMM:   2    -0.290282635603E+03    0.28551E-01   -0.65538E-02   762   0.428E-01    0.425E-01
RMM:   3    -0.290281551011E+03    0.10846E-02   -0.10166E-02   947   0.113E-01    0.327E-01
RMM:   4    -0.290281896586E+03   -0.34558E-03   -0.11991E-03   791   0.417E-02    0.236E-01
RMM:   5    -0.290283335294E+03   -0.14387E-02   -0.16529E-03   760   0.604E-02    0.957E-02
RMM:   6    -0.290283190940E+03    0.14435E-03   -0.29846E-04   760   0.237E-02    0.538E-02
RMM:   7    -0.290283144403E+03    0.46537E-04   -0.11290E-04   702   0.137E-02    0.231E-02
RMM:   8    -0.290283149794E+03   -0.53913E-05   -0.27765E-05   706   0.829E-03    0.120E-02
RMM:   9    -0.290283150677E+03   -0.88294E-06   -0.85440E-06   629   0.443E-03
  26 F= -.29025406E+03 E0= -.29025406E+03  d E =-.129047E-02  mag=     0.0000
       N       E                     dE             d eps       ncg     rms          rms(c)
RMM:   1    -0.290363683139E+03   -0.80533E-01   -0.12813E+01   764   0.582E+00    0.884E-01
RMM:   2    -0.290285557885E+03    0.78125E-01   -0.19885E-01   758   0.740E-01    0.792E-01
RMM:   3    -0.290279573486E+03    0.59844E-02   -0.27569E-02   932   0.196E-01    0.571E-01
RMM:   4    -0.290279337008E+03    0.23648E-03   -0.47557E-03   802   0.807E-02    0.401E-01
RMM:   5    -0.290283217493E+03   -0.38805E-02   -0.62807E-03   764   0.110E-01    0.220E-01
RMM:   6    -0.290282359358E+03    0.85813E-03   -0.10248E-03   764   0.456E-02    0.128E-01
RMM:   7    -0.290282099848E+03    0.25951E-03   -0.49575E-04   757   0.283E-02    0.491E-02
RMM:   8    -0.290282122213E+03   -0.22366E-04   -0.13984E-04   770   0.173E-02    0.224E-02
RMM:   9    -0.290282124565E+03   -0.23518E-05   -0.36078E-05   717   0.860E-03    0.116E-02
RMM:  10    -0.290282125874E+03   -0.13084E-05   -0.15006E-05   659   0.619E-03    0.547E-03
RMM:  11    -0.290282126314E+03   -0.44025E-06   -0.23440E-06   525   0.268E-03
  27 F= -.29025362E+03 E0= -.29025362E+03  d E =-.850884E-03  mag=    -0.0000
       N       E                     dE             d eps       ncg     rms          rms(c)
RMM:   1    -0.290296371949E+03   -0.14246E-01   -0.23424E+00   766   0.251E+00    0.327E-01
RMM:   2    -0.290282708376E+03    0.13664E-01   -0.30613E-02   764   0.294E-01    0.252E-01
RMM:   3    -0.290282765055E+03   -0.56679E-04   -0.55022E-03   964   0.809E-02    0.216E-01
RMM:   4    -0.290282954125E+03   -0.18907E-03   -0.42424E-04   779   0.266E-02    0.151E-01
RMM:   5    -0.290283559484E+03   -0.60536E-03   -0.69270E-04   763   0.387E-02    0.368E-02
RMM:   6    -0.290283519285E+03    0.40200E-04   -0.87604E-05   718   0.135E-02    0.189E-02
RMM:   7    -0.290283515826E+03    0.34582E-05   -0.23979E-05   686   0.776E-03    0.129E-02
RMM:   8    -0.290283515397E+03    0.42949E-06   -0.52955E-06   592   0.357E-03
  28 F= -.29025501E+03 E0= -.29025501E+03  d E =-.138540E-02  mag=    -0.0000
       N       E                     dE             d eps       ncg     rms          rms(c)
RMM:   1    -0.290357320738E+03   -0.73805E-01   -0.11258E+01   766   0.536E+00    0.775E-01
RMM:   2    -0.290287659497E+03    0.69661E-01   -0.16492E-01   764   0.657E-01    0.639E-01
RMM:   3    -0.290285424655E+03    0.22348E-02   -0.26037E-02   968   0.178E-01    0.511E-01
RMM:   4    -0.290285343198E+03    0.81457E-04   -0.28740E-03   800   0.619E-02    0.374E-01
RMM:   5    -0.290288400560E+03   -0.30574E-02   -0.47971E-03   762   0.938E-02    0.151E-01
RMM:   6    -0.290287952893E+03    0.44767E-03   -0.81026E-04   772   0.378E-02    0.900E-02
RMM:   7    -0.290287794892E+03    0.15800E-03   -0.33788E-04   754   0.237E-02    0.373E-02
RMM:   8    -0.290287796604E+03   -0.17112E-05   -0.81384E-05   769   0.128E-02    0.208E-02
RMM:   9    -0.290287796752E+03   -0.14793E-06   -0.24773E-05   709   0.693E-03    0.119E-02
RMM:  10    -0.290287797708E+03   -0.95670E-06   -0.13001E-05   628   0.527E-03    0.481E-03
RMM:  11    -0.290287798302E+03   -0.59403E-06   -0.18651E-06   514   0.261E-03
  29 F= -.29025937E+03 E0= -.29025937E+03  d E =-.574213E-02  mag=     0.0000
       N       E                     dE             d eps       ncg     rms          rms(c)
RMM:   1    -0.290305635250E+03   -0.17838E-01   -0.22050E+00   766   0.236E+00    0.307E-01
RMM:   2    -0.290293356378E+03    0.12279E-01   -0.27666E-02   770   0.268E-01    0.234E-01
RMM:   3    -0.290293522113E+03   -0.16574E-03   -0.50687E-03   977   0.753E-02    0.203E-01
RMM:   4    -0.290293758555E+03   -0.23644E-03   -0.41226E-04   760   0.264E-02    0.128E-01
RMM:   5    -0.290294236204E+03   -0.47765E-03   -0.57355E-04   776   0.332E-02    0.301E-02
RMM:   6    -0.290294204436E+03    0.31768E-04   -0.68689E-05   697   0.131E-02    0.146E-02
RMM:   7    -0.290294203365E+03    0.10714E-05   -0.12950E-05   662   0.530E-03    0.109E-02
RMM:   8    -0.290294202895E+03    0.47012E-06   -0.47445E-06   577   0.328E-03
  30 F= -.29026543E+03 E0= -.29026543E+03  d E =-.606648E-02  mag=    -0.0000
       N       E                     dE             d eps       ncg     rms          rms(c)
RMM:   1    -0.290440657743E+03   -0.14645E+00   -0.20112E+01   766   0.701E+00    0.105E+00
RMM:   2    -0.290310420180E+03    0.13024E+00   -0.30197E-01   762   0.867E-01    0.833E-01
RMM:   3    -0.290306167727E+03    0.42525E-02   -0.43678E-02   977   0.235E-01    0.679E-01
RMM:   4    -0.290305646888E+03    0.52084E-03   -0.56912E-03   794   0.902E-02    0.475E-01
RMM:   5    -0.290310181317E+03   -0.45344E-02   -0.73927E-03   768   0.118E-01    0.205E-01
RMM:   6    -0.290309392719E+03    0.78860E-03   -0.14462E-03   770   0.528E-02    0.126E-01
RMM:   7    -0.290309052487E+03    0.34023E-03   -0.72152E-04   764   0.330E-02    0.464E-02
RMM:   8    -0.290309054903E+03   -0.24163E-05   -0.12162E-04   785   0.164E-02    0.287E-02
RMM:   9    -0.290309052354E+03    0.25495E-05   -0.54856E-05   745   0.956E-03    0.150E-02
RMM:  10    -0.290309054658E+03   -0.23042E-05   -0.27276E-05   697   0.680E-03    0.663E-03
RMM:  11    -0.290309055034E+03   -0.37649E-06   -0.28976E-06   532   0.304E-03
  31 F= -.29027958E+03 E0= -.29027958E+03  d E =-.202121E-01  mag=    -0.0000
       N       E                     dE             d eps       ncg     rms          rms(c)
RMM:   1    -0.290343259968E+03   -0.34205E-01   -0.38837E+00   768   0.313E+00    0.395E-01
RMM:   2    -0.290322598669E+03    0.20661E-01   -0.44529E-02   760   0.351E-01    0.310E-01
RMM:   3    -0.290322568499E+03    0.30170E-04   -0.55456E-03   962   0.899E-02    0.242E-01
RMM:   4    -0.290323355335E+03   -0.78684E-03   -0.12577E-03   764   0.456E-02    0.108E-01
RMM:   5    -0.290323725890E+03   -0.37055E-03   -0.37639E-04   774   0.313E-02    0.361E-02
RMM:   6    -0.290323733157E+03   -0.72674E-05   -0.59926E-05   714   0.116E-02    0.242E-02
RMM:   7    -0.290323730163E+03    0.29945E-05   -0.35615E-05   701   0.828E-03    0.141E-02
RMM:   8    -0.290323729659E+03    0.50398E-06   -0.12931E-05   639   0.489E-03    0.806E-03
RMM:   9    -0.290323729106E+03    0.55258E-06   -0.19729E-06   525   0.269E-03
  32 F= -.29029498E+03 E0= -.29029498E+03  d E =-.153988E-01  mag=     0.0000
       N       E                     dE             d eps       ncg     rms          rms(c)
RMM:   1    -0.290331795347E+03   -0.80657E-02   -0.93900E-01   768   0.154E+00    0.194E-01
RMM:   2    -0.290326967488E+03    0.48279E-02   -0.10413E-02   760   0.171E-01    0.150E-01
RMM:   3    -0.290327073756E+03   -0.10627E-03   -0.12832E-03   890   0.448E-02    0.101E-01
RMM:   4    -0.290327271648E+03   -0.19789E-03   -0.24757E-04   766   0.229E-02    0.400E-02
RMM:   5    -0.290327328629E+03   -0.56981E-04   -0.57352E-05   714   0.118E-02    0.165E-02
RMM:   6    -0.290327328068E+03    0.56100E-06   -0.14308E-05   653   0.637E-03    0.110E-02
RMM:   7    -0.290327326743E+03    0.13248E-05   -0.74689E-06   582   0.380E-03    0.568E-03
RMM:   8    -0.290327326654E+03    0.89052E-07   -0.17861E-06   514   0.226E-03
  33 F= -.29029894E+03 E0= -.29029894E+03  d E =-.193589E-01  mag=    -0.0000
       N       E                     dE             d eps       ncg     rms          rms(c)
RMM:   1    -0.290357803176E+03   -0.30476E-01   -0.30287E+00   766   0.278E+00    0.348E-01
RMM:   2    -0.290339641852E+03    0.18161E-01   -0.34514E-02   766   0.315E-01    0.268E-01
RMM:   3    -0.290339836898E+03   -0.19505E-03   -0.48618E-03   966   0.807E-02    0.209E-01
RMM:   4    -0.290340654424E+03   -0.81753E-03   -0.89961E-04   766   0.382E-02    0.869E-02
RMM:   5    -0.290340913562E+03   -0.25914E-03   -0.25357E-04   776   0.248E-02    0.318E-02
RMM:   6    -0.290340893866E+03    0.19695E-04   -0.66929E-05   704   0.111E-02    0.189E-02
RMM:   7    -0.290340888472E+03    0.53943E-05   -0.32800E-05   712   0.720E-03    0.119E-02
RMM:   8    -0.290340887699E+03    0.77324E-06   -0.31427E-06   532   0.313E-03
  34 F= -.29031249E+03 E0= -.29031249E+03  d E =-.135546E-01  mag=     0.0000
       N       E                     dE             d eps       ncg     rms          rms(c)
RMM:   1    -0.290376190580E+03   -0.35302E-01   -0.41526E+00   766   0.326E+00    0.414E-01
RMM:   2    -0.290351160416E+03    0.25030E-01   -0.48012E-02   768   0.372E-01    0.317E-01
RMM:   3    -0.290351345260E+03   -0.18484E-03   -0.65930E-03   966   0.942E-02    0.249E-01
RMM:   4    -0.290352426998E+03   -0.10817E-02   -0.13456E-03   764   0.460E-02    0.111E-01
RMM:   5    -0.290352842203E+03   -0.41521E-03   -0.42237E-04   774   0.312E-02    0.449E-02
RMM:   6    -0.290352803273E+03    0.38930E-04   -0.92813E-05   714   0.134E-02    0.277E-02
RMM:   7    -0.290352788245E+03    0.15028E-04   -0.79791E-05   722   0.106E-02    0.143E-02
RMM:   8    -0.290352787581E+03    0.66435E-06   -0.66245E-06   607   0.453E-03
  35 F= -.29032442E+03 E0= -.29032442E+03  d E =-.254799E-01  mag=     0.0000
       N       E                     dE             d eps       ncg     rms          rms(c)
RMM:   1    -0.290383063762E+03   -0.30276E-01   -0.35416E+00   764   0.304E+00    0.384E-01
RMM:   2    -0.290359562302E+03    0.23501E-01   -0.39837E-02   770   0.344E-01    0.289E-01
RMM:   3    -0.290359716731E+03   -0.15443E-03   -0.49118E-03   953   0.855E-02    0.219E-01
RMM:   4    -0.290360720681E+03   -0.10040E-02   -0.10338E-03   770   0.419E-02    0.107E-01
RMM:   5    -0.290361120587E+03   -0.39991E-03   -0.35836E-04   768   0.295E-02    0.495E-02
RMM:   6    -0.290361083238E+03    0.37348E-04   -0.71808E-05   710   0.120E-02    0.271E-02
RMM:   7    -0.290361072452E+03    0.10786E-04   -0.69249E-05   704   0.100E-02    0.126E-02
RMM:   8    -0.290361072621E+03   -0.16911E-06   -0.69224E-06   594   0.475E-03
  36 F= -.29033299E+03 E0= -.29033299E+03  d E =-.857718E-02  mag=    -0.0000
       N       E                     dE             d eps       ncg     rms          rms(c)
RMM:   1    -0.290367937558E+03   -0.68651E-02   -0.70097E-01   764   0.136E+00    0.169E-01
RMM:   2    -0.290363285948E+03    0.46516E-02   -0.76352E-03   770   0.151E-01    0.125E-01
RMM:   3    -0.290363444895E+03   -0.15895E-03   -0.93429E-04   898   0.383E-02    0.832E-02
RMM:   4    -0.290363642944E+03   -0.19805E-03   -0.14603E-04   762   0.177E-02    0.318E-02
RMM:   5    -0.290363673468E+03   -0.30524E-04   -0.33294E-05   690   0.995E-03    0.120E-02
RMM:   6    -0.290363671721E+03    0.17479E-05   -0.97489E-06   614   0.447E-03    0.738E-03
RMM:   7    -0.290363671354E+03    0.36615E-06   -0.38799E-06   560   0.295E-03
  37 F= -.29033571E+03 E0= -.29033571E+03  d E =-.112942E-01  mag=     0.0000
       N       E                     dE             d eps       ncg     rms          rms(c)
RMM:   1    -0.290391753197E+03   -0.28081E-01   -0.35756E+00   764   0.309E+00    0.390E-01
RMM:   2    -0.290367115659E+03    0.24638E-01   -0.39061E-02   768   0.342E-01    0.291E-01
RMM:   3    -0.290367189736E+03   -0.74078E-04   -0.43129E-03   928   0.848E-02    0.214E-01
RMM:   4    -0.290368182832E+03   -0.99310E-03   -0.10704E-03   776   0.458E-02    0.112E-01
RMM:   5    -0.290368535156E+03   -0.35232E-03   -0.38655E-04   758   0.314E-02    0.553E-02
RMM:   6    -0.290368523777E+03    0.11379E-04   -0.80715E-05   706   0.128E-02    0.249E-02
RMM:   7    -0.290368517649E+03    0.61275E-05   -0.46613E-05   690   0.869E-03    0.126E-02
RMM:   8    -0.290368517683E+03   -0.34261E-07   -0.79185E-06   608   0.483E-03
  38 F= -.29034121E+03 E0= -.29034121E+03  d E =-.549538E-02  mag=     0.0000
       N       E                     dE             d eps       ncg     rms          rms(c)
RMM:   1    -0.290378129372E+03   -0.96117E-02   -0.14298E+00   764   0.197E+00    0.245E-01
RMM:   2    -0.290368233018E+03    0.98964E-02   -0.15208E-02   768   0.214E-01    0.180E-01
RMM:   3    -0.290368428167E+03   -0.19515E-03   -0.17285E-03   910   0.545E-02    0.123E-01
RMM:   4    -0.290368824944E+03   -0.39678E-03   -0.32378E-04   776   0.261E-02    0.580E-02
RMM:   5    -0.290368920887E+03   -0.95943E-04   -0.11795E-04   744   0.181E-02    0.269E-02
RMM:   6    -0.290368917641E+03    0.32462E-05   -0.22937E-05   674   0.699E-03    0.125E-02
RMM:   7    -0.290368916323E+03    0.13180E-05   -0.11051E-05   637   0.449E-03    0.693E-03
RMM:   8    -0.290368916166E+03    0.15723E-06   -0.23302E-06   523   0.278E-03
  39 F= -.29034198E+03 E0= -.29034198E+03  d E =-.627135E-02  mag=     0.0000
       N       E                     dE             d eps       ncg     rms          rms(c)
RMM:   1    -0.290377378640E+03   -0.84623E-02   -0.12461E+00   762   0.183E+00    0.238E-01
RMM:   2    -0.290369923390E+03    0.74552E-02   -0.14275E-02   766   0.211E-01    0.174E-01
RMM:   3    -0.290370075614E+03   -0.15222E-03   -0.20535E-03   914   0.579E-02    0.116E-01
RMM:   4    -0.290370306346E+03   -0.23073E-03   -0.37153E-04   768   0.283E-02    0.564E-02
RMM:   5    -0.290370379305E+03   -0.72959E-04   -0.13799E-04   737   0.194E-02    0.255E-02
RMM:   6    -0.290370374735E+03    0.45695E-05   -0.21883E-05   668   0.708E-03    0.145E-02
RMM:   7    -0.290370372729E+03    0.20066E-05   -0.23146E-05   680   0.571E-03    0.879E-03
RMM:   8    -0.290370372879E+03   -0.14974E-06   -0.27866E-06   520   0.302E-03
  40 F= -.29034304E+03 E0= -.29034304E+03  d E =-.105803E-02  mag=    -0.0000
       N       E                     dE             d eps       ncg     rms          rms(c)
RMM:   1    -0.290371167523E+03   -0.79479E-03   -0.41166E-01   762   0.106E+00    0.136E-01
RMM:   2    -0.290368713495E+03    0.24540E-02   -0.46772E-03   766   0.122E-01    0.998E-02
RMM:   3    -0.290368791377E+03   -0.77882E-04   -0.67191E-04   872   0.339E-02    0.611E-02
RMM:   4    -0.290368849720E+03   -0.58343E-04   -0.10583E-04   756   0.160E-02    0.248E-02
RMM:   5    -0.290368866474E+03   -0.16754E-04   -0.27636E-05   682   0.912E-03    0.116E-02
RMM:   6    -0.290368865321E+03    0.11525E-05   -0.47400E-06   561   0.369E-03    0.748E-03
RMM:   7    -0.290368865373E+03   -0.51823E-07   -0.63829E-06   571   0.338E-03
  41 F= -.29034132E+03 E0= -.29034132E+03  d E =0.658072E-03  mag=     0.0000
       N       E                     dE             d eps       ncg     rms          rms(c)
RMM:   1    -0.290373476392E+03   -0.46111E-02   -0.54082E-01   764   0.122E+00    0.156E-01
RMM:   2    -0.290369917408E+03    0.35590E-02   -0.57018E-03   764   0.134E-01    0.118E-01
RMM:   3    -0.290370068271E+03   -0.15086E-03   -0.69152E-04   884   0.341E-02    0.758E-02
RMM:   4    -0.290370202563E+03   -0.13429E-03   -0.16850E-04   765   0.216E-02    0.318E-02
RMM:   5    -0.290370206175E+03   -0.36115E-05   -0.32527E-05   682   0.986E-03    0.114E-02
RMM:   6    -0.290370206536E+03   -0.36099E-06   -0.67790E-06   585   0.378E-03
  42 F= -.29034284E+03 E0= -.29034284E+03  d E =-.152105E-02  mag=     0.0000
       N       E                     dE             d eps       ncg     rms          rms(c)
RMM:   1    -0.290380249416E+03   -0.10043E-01   -0.16535E+00   764   0.213E+00    0.274E-01
RMM:   2    -0.290369429750E+03    0.10820E-01   -0.17702E-02   766   0.235E-01    0.207E-01
RMM:   3    -0.290369671705E+03   -0.24196E-03   -0.21336E-03   905   0.584E-02    0.148E-01
RMM:   4    -0.290370242873E+03   -0.57117E-03   -0.56657E-04   770   0.380E-02    0.665E-02
RMM:   5    -0.290370289723E+03   -0.46849E-04   -0.12131E-04   752   0.192E-02    0.232E-02
RMM:   6    -0.290370289295E+03    0.42736E-06   -0.29871E-05   696   0.718E-03    0.132E-02
RMM:   7    -0.290370288337E+03    0.95823E-06   -0.87738E-06   632   0.429E-03
  43 F= -.29034323E+03 E0= -.29034323E+03  d E =-.190590E-02  mag=     0.0000
       N       E                     dE             d eps       ncg     rms          rms(c)
RMM:   1    -0.290374237437E+03   -0.39481E-02   -0.67795E-01   764   0.137E+00    0.180E-01
RMM:   2    -0.290369835612E+03    0.44018E-02   -0.71893E-03   765   0.151E-01    0.138E-01
RMM:   3    -0.290370005036E+03   -0.16942E-03   -0.84596E-04   904   0.361E-02    0.930E-02
RMM:   4    -0.290370266682E+03   -0.26165E-03   -0.26007E-04   764   0.272E-02    0.358E-02
RMM:   5    -0.290370256896E+03    0.97855E-05   -0.40867E-05   697   0.109E-02    0.120E-02
RMM:   6    -0.290370255483E+03    0.14130E-05   -0.73619E-06   587   0.388E-03    0.876E-03
RMM:   7    -0.290370255125E+03    0.35771E-06   -0.36712E-06   543   0.316E-03
  44 F= -.29034332E+03 E0= -.29034332E+03  d E =-.946436E-04  mag=    -0.0000
       N       E                     dE             d eps       ncg     rms          rms(c)
RMM:   1    -0.290383198691E+03   -0.12943E-01   -0.25001E+00   766   0.263E+00    0.353E-01
RMM:   2    -0.290367255322E+03    0.15943E-01   -0.27262E-02   765   0.292E-01    0.266E-01
RMM:   3    -0.290367447318E+03   -0.19200E-03   -0.31543E-03   934   0.688E-02    0.201E-01
RMM:   4    -0.290368516254E+03   -0.10689E-02   -0.10954E-03   768   0.524E-02    0.855E-02
RMM:   5    -0.290368544761E+03   -0.28507E-04   -0.21596E-04   757   0.249E-02    0.307E-02
RMM:   6    -0.290368529400E+03    0.15362E-04   -0.49804E-05   690   0.895E-03    0.186E-02
RMM:   7    -0.290368526929E+03    0.24701E-05   -0.15222E-05   660   0.552E-03    0.120E-02
RMM:   8    -0.290368527363E+03   -0.43351E-06   -0.74076E-06   602   0.475E-03
  45 F= -.29034186E+03 E0= -.29034186E+03  d E =0.136671E-02  mag=    -0.0000
       N       E                     dE             d eps       ncg     rms          rms(c)
RMM:   1    -0.290374751957E+03   -0.62250E-02   -0.69725E-01   764   0.139E+00    0.185E-01
RMM:   2    -0.290371051774E+03    0.37002E-02   -0.76536E-03   762   0.150E-01    0.141E-01
RMM:   3    -0.290371156893E+03   -0.10512E-03   -0.10080E-03   896   0.414E-02    0.937E-02
RMM:   4    -0.290371365990E+03   -0.20910E-03   -0.29067E-04   762   0.267E-02    0.379E-02
RMM:   5    -0.290371374883E+03   -0.88933E-05   -0.64769E-05   704   0.132E-02    0.152E-02
RMM:   6    -0.290371373078E+03    0.18049E-05   -0.77007E-06   570   0.444E-03    0.104E-02
RMM:   7    -0.290371372098E+03    0.98070E-06   -0.14514E-05   622   0.447E-03    0.595E-03
RMM:   8    -0.290371372346E+03   -0.24822E-06   -0.16549E-06   511   0.247E-03
  46 F= -.29034441E+03 E0= -.29034441E+03  d E =-.254664E-02  mag=    -0.0000
       N       E                     dE             d eps       ncg     rms          rms(c)
RMM:   1    -0.290378029794E+03   -0.66577E-02   -0.13927E+00   764   0.196E+00    0.265E-01
RMM:   2    -0.290370680672E+03    0.73491E-02   -0.15445E-02   764   0.213E-01    0.198E-01
RMM:   3    -0.290370817340E+03   -0.13667E-03   -0.20108E-03   917   0.582E-02    0.139E-01
RMM:   4    -0.290371235683E+03   -0.41834E-03   -0.58996E-04   762   0.369E-02    0.593E-02
RMM:   5    -0.290371290649E+03   -0.54966E-04   -0.16075E-04   752   0.204E-02    0.234E-02
RMM:   6    -0.290371284596E+03    0.60534E-05   -0.16757E-05   654   0.658E-03    0.156E-02
RMM:   7    -0.290371280776E+03    0.38197E-05   -0.31779E-05   676   0.617E-03    0.924E-03
RMM:   8    -0.290371281297E+03   -0.52119E-06   -0.40392E-06   537   0.338E-03
  47 F= -.29034391E+03 E0= -.29034391E+03  d E =-.204290E-02  mag=    -0.0000
       N       E                     dE             d eps       ncg     rms          rms(c)
RMM:   1    -0.290376106963E+03   -0.48262E-02   -0.53360E-01   762   0.122E+00    0.162E-01
RMM:   2    -0.290373437424E+03    0.26695E-02   -0.66479E-03   762   0.151E-01    0.128E-01
RMM:   3    -0.290373528790E+03   -0.91366E-04   -0.87411E-04   902   0.373E-02    0.937E-02
RMM:   4    -0.290373727042E+03   -0.19825E-03   -0.27642E-04   762   0.275E-02    0.395E-02
RMM:   5    -0.290373727367E+03   -0.32518E-06   -0.49445E-05   700   0.122E-02    0.137E-02
RMM:   6    -0.290373724180E+03    0.31874E-05   -0.10543E-05   638   0.470E-03    0.911E-03
RMM:   7    -0.290373724128E+03    0.51814E-07   -0.38657E-06   548   0.312E-03
  48 F= -.29034663E+03 E0= -.29034663E+03  d E =-.272455E-02  mag=     0.0000
       N       E                     dE             d eps       ncg     rms          rms(c)
RMM:   1    -0.290383854526E+03   -0.10130E-01   -0.17814E+00   762   0.223E+00    0.300E-01
RMM:   2    -0.290375108807E+03    0.87457E-02   -0.22698E-02   764   0.278E-01    0.235E-01
RMM:   3    -0.290375245814E+03   -0.13701E-03   -0.29657E-03   918   0.683E-02    0.184E-01
RMM:   4    -0.290375831493E+03   -0.58568E-03   -0.95122E-04   764   0.487E-02    0.847E-02
RMM:   5    -0.290375924118E+03   -0.92625E-04   -0.23096E-04   758   0.257E-02    0.289E-02
RMM:   6    -0.290375906787E+03    0.17330E-04   -0.44044E-05   714   0.926E-03    0.179E-02
RMM:   7    -0.290375905333E+03    0.14541E-05   -0.15402E-05   676   0.566E-03    0.997E-03
RMM:   8    -0.290375906268E+03   -0.93458E-06   -0.55804E-06   580   0.424E-03
  49 F= -.29034925E+03 E0= -.29034925E+03  d E =-.533974E-02  mag=    -0.0000
       N       E                     dE             d eps       ncg     rms          rms(c)
RMM:   1    -0.290380563158E+03   -0.46578E-02   -0.66216E-01   764   0.136E+00    0.171E-01
RMM:   2    -0.290377588187E+03    0.29750E-02   -0.80814E-03   764   0.159E-01    0.136E-01
RMM:   3    -0.290377683026E+03   -0.94840E-04   -0.10986E-03   928   0.423E-02    0.104E-01
RMM:   4    -0.290377910663E+03   -0.22764E-03   -0.31758E-04   764   0.276E-02    0.465E-02
RMM:   5    -0.290377932738E+03   -0.22074E-04   -0.86999E-05   722   0.154E-02    0.162E-02
RMM:   6    -0.290377927549E+03    0.51883E-05   -0.11706E-05   634   0.516E-03    0.106E-02
RMM:   7    -0.290377926179E+03    0.13704E-05   -0.11793E-05   626   0.436E-03    0.539E-03
RMM:   8    -0.290377926583E+03   -0.40390E-06   -0.14063E-06   512   0.245E-03
  50 F= -.29035123E+03 E0= -.29035123E+03  d E =-.198628E-02  mag=     0.0000
       N       E                     dE             d eps       ncg     rms          rms(c)
RMM:   1    -0.290380331819E+03   -0.24056E-02   -0.32069E-01   764   0.952E-01    0.118E-01
RMM:   2    -0.290378884687E+03    0.14471E-02   -0.39058E-03   764   0.111E-01    0.943E-02
RMM:   3    -0.290378939624E+03   -0.54937E-04   -0.53098E-04   902   0.295E-02    0.701E-02
RMM:   4    -0.290379055152E+03   -0.11553E-03   -0.14886E-04   758   0.194E-02    0.306E-02
RMM:   5    -0.290379057879E+03   -0.27268E-05   -0.37443E-05   686   0.103E-02    0.105E-02
RMM:   6    -0.290379055870E+03    0.20091E-05   -0.50707E-06   556   0.351E-03    0.698E-03
RMM:   7    -0.290379055438E+03    0.43168E-06   -0.49046E-06   556   0.314E-03
  51 F= -.29035234E+03 E0= -.29035234E+03  d E =-.309533E-02  mag=     0.0000
       N       E                     dE             d eps       ncg     rms          rms(c)
RMM:   1    -0.290383646524E+03   -0.45907E-02   -0.68478E-01   764   0.140E+00    0.169E-01
RMM:   2    -0.290380623267E+03    0.30233E-02   -0.85034E-03   768   0.164E-01    0.137E-01
RMM:   3    -0.290380708739E+03   -0.85473E-04   -0.11370E-03   928   0.424E-02    0.106E-01
RMM:   4    -0.290380949742E+03   -0.24100E-03   -0.34589E-04   762   0.285E-02    0.463E-02
RMM:   5    -0.290380970101E+03   -0.20359E-04   -0.93450E-05   728   0.156E-02    0.188E-02
RMM:   6    -0.290380961902E+03    0.81999E-05   -0.14645E-05   658   0.533E-03    0.112E-02
RMM:   7    -0.290380960483E+03    0.14187E-05   -0.13110E-05   636   0.447E-03    0.574E-03
RMM:   8    -0.290380960808E+03   -0.32495E-06   -0.12805E-06   508   0.237E-03
  52 F= -.29035423E+03 E0= -.29035423E+03  d E =-.189077E-02  mag=    -0.0000
       N       E                     dE             d eps       ncg     rms          rms(c)
RMM:   1    -0.290383086853E+03   -0.21264E-02   -0.27843E-01   764   0.892E-01    0.107E-01
RMM:   2    -0.290381849625E+03    0.12372E-02   -0.34526E-03   766   0.105E-01    0.867E-02
RMM:   3    -0.290381892419E+03   -0.42794E-04   -0.46410E-04   894   0.272E-02    0.660E-02
RMM:   4    -0.290381995651E+03   -0.10323E-03   -0.13316E-04   754   0.184E-02    0.283E-02
RMM:   5    -0.290381998030E+03   -0.23791E-05   -0.33767E-05   684   0.961E-03    0.107E-02
RMM:   6    -0.290381995506E+03    0.25247E-05   -0.51750E-06   562   0.346E-03    0.664E-03
RMM:   7    -0.290381995183E+03    0.32225E-06   -0.43272E-06   546   0.293E-03
  53 F= -.29035526E+03 E0= -.29035526E+03  d E =-.292177E-02  mag=    -0.0000
       N       E                     dE             d eps       ncg     rms          rms(c)
RMM:   1    -0.290384966750E+03   -0.29712E-02   -0.34623E-01   766   0.992E-01    0.121E-01
RMM:   2    -0.290383448573E+03    0.15182E-02   -0.44898E-03   768   0.125E-01    0.994E-02
RMM:   3    -0.290383491929E+03   -0.43356E-04   -0.63556E-04   888   0.301E-02    0.752E-02
RMM:   4    -0.290383604725E+03   -0.11280E-03   -0.19650E-04   760   0.223E-02    0.316E-02
RMM:   5    -0.290383602220E+03    0.25045E-05   -0.33726E-05   684   0.975E-03    0.130E-02
RMM:   6    -0.290383599398E+03    0.28225E-05   -0.89220E-06   630   0.426E-03    0.745E-03
RMM:   7    -0.290383599617E+03   -0.21886E-06   -0.26367E-06   530   0.266E-03
  54 F= -.29035701E+03 E0= -.29035701E+03  d E =-.175058E-02  mag=     0.0000
       N       E                     dE             d eps       ncg     rms          rms(c)
RMM:   1    -0.290388331180E+03   -0.47318E-02   -0.95594E-01   766   0.165E+00    0.200E-01
RMM:   2    -0.290384227728E+03    0.41035E-02   -0.12631E-02   770   0.208E-01    0.166E-01
RMM:   3    -0.290384292520E+03   -0.64792E-04   -0.17087E-03   928   0.496E-02    0.130E-01
RMM:   4    -0.290384565587E+03   -0.27307E-03   -0.56961E-04   764   0.368E-02    0.568E-02
RMM:   5    -0.290384577364E+03   -0.11776E-04   -0.11600E-04   746   0.174E-02    0.238E-02
RMM:   6    -0.290384567316E+03    0.10048E-04   -0.26034E-05   697   0.691E-03    0.135E-02
RMM:   7    -0.290384566727E+03    0.58816E-06   -0.11238E-05   632   0.463E-03    0.789E-03
RMM:   8    -0.290384567275E+03   -0.54716E-06   -0.19826E-06   520   0.271E-03
  55 F= -.29035820E+03 E0= -.29035820E+03  d E =-.293475E-02  mag=     0.0000
       N       E                     dE             d eps       ncg     rms          rms(c)
RMM:   1    -0.290386266288E+03   -0.16996E-02   -0.14398E-01   766   0.638E-01    0.741E-02
RMM:   2    -0.290385630021E+03    0.63627E-03   -0.16941E-03   768   0.705E-02    0.604E-02
RMM:   3    -0.290385647416E+03   -0.17395E-04   -0.21036E-04   887   0.185E-02    0.442E-02
RMM:   4    -0.290385683117E+03   -0.35701E-04   -0.60524E-05   698   0.122E-02    0.201E-02
RMM:   5    -0.290385686615E+03   -0.34979E-05   -0.16827E-05   662   0.685E-03    0.729E-03
RMM:   6    -0.290385686135E+03    0.47974E-06   -0.19058E-06   517   0.248E-03
  56 F= -.29035921E+03 E0= -.29035921E+03  d E =-.100790E-02  mag=     0.0000
       N       E                     dE             d eps       ncg     rms          rms(c)
RMM:   1    -0.290393090673E+03   -0.74041E-02   -0.12944E+00   766   0.191E+00    0.224E-01
RMM:   2    -0.290387451171E+03    0.56395E-02   -0.15547E-02   766   0.212E-01    0.181E-01
RMM:   3    -0.290387521452E+03   -0.70281E-04   -0.19202E-03   946   0.551E-02    0.142E-01
RMM:   4    -0.290387817917E+03   -0.29646E-03   -0.56882E-04   758   0.340E-02    0.646E-02
RMM:   5    -0.290387924308E+03   -0.10639E-03   -0.21263E-04   756   0.223E-02    0.282E-02
RMM:   6    -0.290387909753E+03    0.14554E-04   -0.21177E-05   668   0.735E-03    0.186E-02
RMM:   7    -0.290387900876E+03    0.88772E-05   -0.40942E-05   678   0.718E-03    0.964E-03
RMM:   8    -0.290387901776E+03   -0.89997E-06   -0.52245E-06   542   0.361E-03
  57 F= -.29036113E+03 E0= -.29036113E+03  d E =-.293176E-02  mag=     0.0000
       N       E                     dE             d eps       ncg     rms          rms(c)
RMM:   1    -0.290408419383E+03   -0.20519E-01   -0.51663E+00   766   0.381E+00    0.458E-01
RMM:   2    -0.290386108845E+03    0.22311E-01   -0.65016E-02   766   0.430E-01    0.363E-01
RMM:   3    -0.290386030089E+03    0.78756E-04   -0.81335E-03   978   0.113E-01    0.306E-01
RMM:   4    -0.290386749062E+03   -0.71897E-03   -0.18421E-03   760   0.557E-02    0.167E-01
RMM:   5    -0.290387658284E+03   -0.90922E-03   -0.14969E-03   766   0.558E-02    0.788E-02
RMM:   6    -0.290387541875E+03    0.11641E-03   -0.14853E-04   738   0.203E-02    0.527E-02
RMM:   7    -0.290387462805E+03    0.79070E-04   -0.23408E-04   708   0.174E-02    0.226E-02
RMM:   8    -0.290387465592E+03   -0.27871E-05   -0.43608E-05   726   0.906E-03    0.138E-02
RMM:   9    -0.290387468288E+03   -0.26957E-05   -0.11025E-05   612   0.504E-03    0.881E-03
RMM:  10    -0.290387466783E+03    0.15045E-05   -0.61386E-06   548   0.367E-03    0.255E-03
RMM:  11    -0.290387466837E+03   -0.54417E-07   -0.16398E-06   510   0.221E-03
  58 F= -.29036013E+03 E0= -.29036013E+03  d E =-.193519E-02  mag=     0.0000
       N       E                     dE             d eps       ncg     rms          rms(c)
RMM:   1    -0.290394511969E+03   -0.70452E-02   -0.14670E+00   766   0.204E+00    0.231E-01
RMM:   2    -0.290387925150E+03    0.65868E-02   -0.17518E-02   768   0.227E-01    0.192E-01
RMM:   3    -0.290388036431E+03   -0.11128E-03   -0.23652E-03   948   0.605E-02    0.150E-01
RMM:   4    -0.290388364826E+03   -0.32840E-03   -0.43811E-04   756   0.319E-02    0.705E-02
RMM:   5    -0.290388501364E+03   -0.13654E-03   -0.20940E-04   754   0.225E-02    0.267E-02
RMM:   6    -0.290388495023E+03    0.63409E-05   -0.27429E-05   678   0.856E-03    0.167E-02
RMM:   7    -0.290388487212E+03    0.78112E-05   -0.19707E-05   668   0.538E-03    0.104E-02
RMM:   8    -0.290388486848E+03    0.36380E-06   -0.65039E-06   574   0.375E-03
  59 F= -.29036148E+03 E0= -.29036148E+03  d E =-.327939E-02  mag=     0.0000
       N       E                     dE             d eps       ncg     rms          rms(c)
RMM:   1    -0.290392538158E+03   -0.40509E-02   -0.56701E-01   766   0.127E+00    0.150E-01
RMM:   2    -0.290389874643E+03    0.26635E-02   -0.71227E-03   766   0.151E-01    0.122E-01
RMM:   3    -0.290389928977E+03   -0.54335E-04   -0.96536E-04   903   0.371E-02    0.965E-02
RMM:   4    -0.290390066191E+03   -0.13721E-03   -0.22286E-04   752   0.237E-02    0.479E-02
RMM:   5    -0.290390108113E+03   -0.41922E-04   -0.89081E-05   712   0.157E-02    0.148E-02
RMM:   6    -0.290390103910E+03    0.42025E-05   -0.92341E-06   607   0.506E-03    0.103E-02
RMM:   7    -0.290390101897E+03    0.20127E-05   -0.51948E-06   552   0.323E-03    0.700E-03
RMM:   8    -0.290390102167E+03   -0.26918E-06   -0.23705E-06   518   0.272E-03
  60 F= -.29036311E+03 E0= -.29036311E+03  d E =-.163390E-02  mag=    -0.0000
       N       E                     dE             d eps       ncg     rms          rms(c)
RMM:   1    -0.290415681058E+03   -0.25579E-01   -0.51070E+00   766   0.381E+00    0.458E-01
RMM:   2    -0.290391695541E+03    0.23986E-01   -0.67462E-02   766   0.459E-01    0.372E-01
RMM:   3    -0.290391758554E+03   -0.63013E-04   -0.91757E-03   966   0.113E-01    0.318E-01
RMM:   4    -0.290392522218E+03   -0.76366E-03   -0.17852E-03   760   0.602E-02    0.178E-01
RMM:   5    -0.290393328596E+03   -0.80638E-03   -0.13458E-03   760   0.561E-02    0.714E-02
RMM:   6    -0.290393245337E+03    0.83260E-04   -0.14844E-04   746   0.197E-02    0.448E-02
RMM:   7    -0.290393201763E+03    0.43574E-04   -0.74171E-05   698   0.113E-02    0.269E-02
RMM:   8    -0.290393195483E+03    0.62796E-05   -0.45657E-05   700   0.914E-03    0.120E-02
RMM:   9    -0.290393196319E+03   -0.83569E-06   -0.63489E-06   578   0.442E-03
  61 F= -.29036631E+03 E0= -.29036631E+03  d E =-.483632E-02  mag=    -0.0000
       N       E                     dE             d eps       ncg     rms          rms(c)
RMM:   1    -0.290398605006E+03   -0.54095E-02   -0.82063E-01   766   0.153E+00    0.178E-01
RMM:   2    -0.290394608952E+03    0.39961E-02   -0.10290E-02   766   0.176E-01    0.143E-01
RMM:   3    -0.290394680619E+03   -0.71667E-04   -0.13472E-03   930   0.452E-02    0.114E-01
RMM:   4    -0.290394838137E+03   -0.15752E-03   -0.29817E-04   758   0.264E-02    0.628E-02
RMM:   5    -0.290394938895E+03   -0.10076E-03   -0.18013E-04   749   0.211E-02    0.221E-02
RMM:   6    -0.290394928080E+03    0.10816E-04   -0.18926E-05   642   0.706E-03    0.141E-02
RMM:   7    -0.290394923539E+03    0.45407E-05   -0.14145E-05   628   0.470E-03    0.949E-03
RMM:   8    -0.290394922901E+03    0.63826E-06   -0.43171E-06   546   0.325E-03
  62 F= -.29036792E+03 E0= -.29036792E+03  d E =-.160272E-02  mag=    -0.0000
       N       E                     dE             d eps       ncg     rms          rms(c)
RMM:   1    -0.290407488069E+03   -0.12565E-01   -0.22794E+00   766   0.255E+00    0.299E-01
RMM:   2    -0.290396339395E+03    0.11149E-01   -0.29230E-02   766   0.296E-01    0.238E-01
RMM:   3    -0.290396475416E+03   -0.13602E-03   -0.38897E-03   954   0.762E-02    0.197E-01
RMM:   4    -0.290396803248E+03   -0.32783E-03   -0.74973E-04   768   0.398E-02    0.118E-01
RMM:   5    -0.290397183639E+03   -0.38039E-03   -0.67090E-04   756   0.395E-02    0.439E-02
RMM:   6    -0.290397145463E+03    0.38176E-04   -0.63699E-05   684   0.130E-02    0.285E-02
RMM:   7    -0.290397125453E+03    0.20010E-04   -0.51427E-05   684   0.867E-03    0.171E-02
RMM:   8    -0.290397122793E+03    0.26601E-05   -0.11022E-05   603   0.508E-03    0.101E-02
RMM:   9    -0.290397122180E+03    0.61248E-06   -0.78136E-06   580   0.410E-03
  63 F= -.29036997E+03 E0= -.29036997E+03  d E =-.365198E-02  mag=     0.0000
       N       E                     dE             d eps       ncg     rms          rms(c)
RMM:   1    -0.290401824797E+03   -0.47020E-02   -0.74691E-01   764   0.146E+00    0.168E-01
RMM:   2    -0.290398055675E+03    0.37691E-02   -0.94383E-03   768   0.169E-01    0.134E-01
RMM:   3    -0.290398120257E+03   -0.64583E-04   -0.12345E-03   928   0.438E-02    0.108E-01
RMM:   4    -0.290398256701E+03   -0.13644E-03   -0.26719E-04   750   0.248E-02    0.618E-02
RMM:   5    -0.290398357019E+03   -0.10032E-03   -0.19066E-04   746   0.215E-02    0.245E-02
RMM:   6    -0.290398343120E+03    0.13899E-04   -0.23504E-05   648   0.762E-03    0.143E-02
RMM:   7    -0.290398338646E+03    0.44739E-05   -0.16337E-05   650   0.504E-03    0.962E-03
RMM:   8    -0.290398337901E+03    0.74486E-06   -0.45803E-06   552   0.327E-03
  64 F= -.29037105E+03 E0= -.29037105E+03  d E =-.108860E-02  mag=    -0.0000
       N       E                     dE             d eps       ncg     rms          rms(c)
RMM:   1    -0.290432807605E+03   -0.34469E-01   -0.66475E+00   766   0.434E+00    0.520E-01
RMM:   2    -0.290398660631E+03    0.34147E-01   -0.88592E-02   768   0.518E-01    0.405E-01
RMM:   3    -0.290398782682E+03   -0.12205E-03   -0.11579E-02   978   0.132E-01    0.349E-01
RMM:   4    -0.290399222863E+03   -0.44018E-03   -0.19203E-03   774   0.596E-02    0.231E-01
RMM:   5    -0.290400750675E+03   -0.15278E-02   -0.29398E-03   756   0.782E-02    0.102E-01
RMM:   6    -0.290400575829E+03    0.17485E-03   -0.28493E-04   754   0.280E-02    0.690E-02
RMM:   7    -0.290400460269E+03    0.11556E-03   -0.25704E-04   706   0.194E-02    0.353E-02
RMM:   8    -0.290400448054E+03    0.12215E-04   -0.40486E-05   698   0.967E-03    0.227E-02
RMM:   9    -0.290400444081E+03    0.39735E-05   -0.35314E-05   694   0.795E-03    0.111E-02
RMM:  10    -0.290400443218E+03    0.86321E-06   -0.25598E-05   682   0.614E-03    0.623E-03
RMM:  11    -0.290400442437E+03    0.78016E-06   -0.24007E-06   518   0.282E-03
  65 F= -.29037284E+03 E0= -.29037284E+03  d E =-.287114E-02  mag=    -0.0000
       N       E                     dE             d eps       ncg     rms          rms(c)
RMM:   1    -0.290403267866E+03   -0.28246E-02   -0.28826E-01   766   0.902E-01    0.108E-01
RMM:   2    -0.290401684977E+03    0.15829E-02   -0.35992E-03   772   0.111E-01    0.859E-02
RMM:   3    -0.290401700543E+03   -0.15566E-04   -0.46754E-04   870   0.272E-02    0.621E-02
RMM:   4    -0.290401734193E+03   -0.33650E-04   -0.10485E-04   730   0.165E-02    0.339E-02
RMM:   5    -0.290401746337E+03   -0.12145E-04   -0.49437E-05   686   0.115E-02    0.128E-02
RMM:   6    -0.290401745533E+03    0.80443E-06   -0.81882E-06   592   0.469E-03
  66 F= -.29037431E+03 E0= -.29037431E+03  d E =-.147132E-02  mag=     0.0000
       N       E                     dE             d eps       ncg     rms          rms(c)
RMM:   1    -0.290411918401E+03   -0.10172E-01   -0.20753E+00   766   0.240E+00    0.290E-01
RMM:   2    -0.290400678968E+03    0.11239E-01   -0.26230E-02   772   0.298E-01    0.234E-01
RMM:   3    -0.290400745849E+03   -0.66881E-04   -0.34154E-03   934   0.718E-02    0.174E-01
RMM:   4    -0.290400983460E+03   -0.23761E-03   -0.72837E-04   758   0.411E-02    0.918E-02
RMM:   5    -0.290401180066E+03   -0.19661E-03   -0.37951E-04   758   0.307E-02    0.371E-02
RMM:   6    -0.290401171924E+03    0.81416E-05   -0.55357E-05   684   0.117E-02    0.235E-02
RMM:   7    -0.290401160161E+03    0.11763E-04   -0.45230E-05   676   0.843E-03    0.179E-02
RMM:   8    -0.290401158041E+03    0.21193E-05   -0.92222E-06   598   0.483E-03    0.916E-03
RMM:   9    -0.290401159796E+03   -0.17545E-05   -0.81365E-06   585   0.429E-03    0.421E-03
RMM:  10    -0.290401159339E+03    0.45648E-06   -0.13993E-06   503   0.217E-03
  67 F= -.29037406E+03 E0= -.29037406E+03  d E =-.121994E-02  mag=    -0.0000
       N       E                     dE             d eps       ncg     rms          rms(c)
RMM:   1    -0.290403138882E+03   -0.19791E-02   -0.11565E-01   764   0.566E-01    0.637E-02
RMM:   2    -0.290402493241E+03    0.64564E-03   -0.13801E-03   776   0.628E-02    0.500E-02
RMM:   3    -0.290402498656E+03   -0.54147E-05   -0.17987E-04   894   0.169E-02    0.363E-02
RMM:   4    -0.290402510833E+03   -0.12178E-04   -0.52592E-05   680   0.103E-02    0.184E-02
RMM:   5    -0.290402516562E+03   -0.57285E-05   -0.16480E-05   656   0.662E-03    0.101E-02
RMM:   6    -0.290402514711E+03    0.18512E-05   -0.46909E-06   550   0.327E-03    0.519E-03
RMM:   7    -0.290402514392E+03    0.31847E-06   -0.44805E-06   550   0.278E-03
  68 F= -.29037529E+03 E0= -.29037529E+03  d E =-.123565E-02  mag=    -0.0000
       N       E                     dE             d eps       ncg     rms          rms(c)
RMM:   1    -0.290411041874E+03   -0.85272E-02   -0.10420E+00   762   0.170E+00    0.193E-01
RMM:   2    -0.290405016402E+03    0.60255E-02   -0.12574E-02   776   0.189E-01    0.150E-01
RMM:   3    -0.290405070881E+03   -0.54479E-04   -0.16546E-03   948   0.507E-02    0.113E-01
RMM:   4    -0.290405209862E+03   -0.13898E-03   -0.42834E-04   754   0.271E-02    0.615E-02
RMM:   5    -0.290405327070E+03   -0.11721E-03   -0.20321E-04   748   0.218E-02    0.326E-02
RMM:   6    -0.290405302482E+03    0.24588E-04   -0.52521E-05   682   0.102E-02    0.165E-02
RMM:   7    -0.290405299155E+03    0.33271E-05   -0.44284E-05   723   0.741E-03    0.145E-02
RMM:   8    -0.290405296681E+03    0.24741E-05   -0.33937E-06   534   0.335E-03    0.103E-02
RMM:   9    -0.290405297033E+03   -0.35259E-06   -0.97573E-06   580   0.405E-03
  69 F= -.29037775E+03 E0= -.29037775E+03  d E =-.368973E-02  mag=     0.0000
       N       E                     dE             d eps       ncg     rms          rms(c)
RMM:   1    -0.290428644259E+03   -0.23348E-01   -0.41667E+00   762   0.339E+00    0.392E-01
RMM:   2    -0.290404418492E+03    0.24226E-01   -0.51625E-02   778   0.382E-01    0.300E-01
RMM:   3    -0.290404436167E+03   -0.17675E-04   -0.69017E-03   978   0.102E-01    0.242E-01
RMM:   4    -0.290404594079E+03   -0.15791E-03   -0.11490E-03   760   0.432E-02    0.155E-01
RMM:   5    -0.290405466207E+03   -0.87213E-03   -0.17758E-03   760   0.575E-02    0.805E-02
RMM:   6    -0.290405279387E+03    0.18682E-03   -0.41960E-04   731   0.279E-02    0.317E-02
RMM:   7    -0.290405269245E+03    0.10142E-04   -0.11240E-04   812   0.134E-02    0.278E-02
RMM:   8    -0.290405261707E+03    0.75385E-05   -0.27385E-05   650   0.688E-03    0.158E-02
RMM:   9    -0.290405263765E+03   -0.20579E-05   -0.22653E-05   664   0.613E-03    0.101E-02
RMM:  10    -0.290405262616E+03    0.11484E-05   -0.69807E-06   576   0.394E-03    0.312E-03
RMM:  11    -0.290405262686E+03   -0.69676E-07   -0.85376E-07   488   0.204E-03
  70 F= -.29037703E+03 E0= -.29037703E+03  d E =-.297419E-02  mag=    -0.0000
       N       E                     dE             d eps       ncg     rms          rms(c)
RMM:   1    -0.290409340747E+03   -0.40781E-02   -0.57058E-01   762   0.126E+00    0.140E-01
RMM:   2    -0.290406057403E+03    0.32833E-02   -0.68259E-03   776   0.140E-01    0.110E-01
RMM:   3    -0.290406087682E+03   -0.30279E-04   -0.90707E-04   930   0.380E-02    0.835E-02
RMM:   4    -0.290406139020E+03   -0.51338E-04   -0.16099E-04   748   0.190E-02    0.480E-02
RMM:   5    -0.290406209839E+03   -0.70819E-04   -0.13601E-04   730   0.174E-02    0.232E-02
RMM:   6    -0.290406199852E+03    0.99865E-05   -0.19395E-05   646   0.690E-03    0.126E-02
RMM:   7    -0.290406196708E+03    0.31446E-05   -0.25110E-05   676   0.567E-03    0.971E-03
RMM:   8    -0.290406195914E+03    0.79344E-06   -0.16033E-06   507   0.249E-03
  71 F= -.29037822E+03 E0= -.29037822E+03  d E =-.416735E-02  mag=     0.0000
       N       E                     dE             d eps       ncg     rms          rms(c)
RMM:   1    -0.290406893152E+03   -0.69644E-03   -0.45470E-02   764   0.356E-01    0.407E-02
RMM:   2    -0.290406607564E+03    0.28559E-03   -0.52707E-04   768   0.403E-02    0.317E-02
RMM:   3    -0.290406608882E+03   -0.13179E-05   -0.64765E-05   774   0.108E-02    0.203E-02
RMM:   4    -0.290406612115E+03   -0.32337E-05   -0.15656E-05   632   0.636E-03    0.969E-03
RMM:   5    -0.290406613205E+03   -0.10900E-05   -0.45897E-06   544   0.369E-03    0.488E-03
RMM:   6    -0.290406613174E+03    0.31261E-07   -0.90927E-07   470   0.211E-03
  72 F= -.29037875E+03 E0= -.29037875E+03  d E =-.528434E-03  mag=    -0.0000
       N       E                     dE             d eps       ncg     rms          rms(c)
RMM:   1    -0.290409638416E+03   -0.30252E-02   -0.41081E-01   764   0.107E+00    0.123E-01
RMM:   2    -0.290407034831E+03    0.26036E-02   -0.47908E-03   772   0.121E-01    0.962E-02
RMM:   3    -0.290407062545E+03   -0.27715E-04   -0.63368E-04   879   0.327E-02    0.624E-02
RMM:   4    -0.290407097818E+03   -0.35273E-04   -0.11948E-04   746   0.166E-02    0.325E-02
RMM:   5    -0.290407119634E+03   -0.21816E-04   -0.56595E-05   692   0.115E-02    0.154E-02
RMM:   6    -0.290407117924E+03    0.17095E-05   -0.81180E-06   599   0.470E-03    0.948E-03
RMM:   7    -0.290407117409E+03    0.51459E-06   -0.15348E-05   632   0.459E-03    0.863E-03
RMM:   8    -0.290407116745E+03    0.66433E-06   -0.15616E-06   506   0.236E-03
  73 F= -.29037957E+03 E0= -.29037957E+03  d E =-.134540E-02  mag=     0.0000
       N       E                     dE             d eps       ncg     rms          rms(c)
RMM:   1    -0.290414989133E+03   -0.78717E-02   -0.16431E+00   764   0.213E+00    0.245E-01
RMM:   2    -0.290404475923E+03    0.10513E-01   -0.19232E-02   772   0.242E-01    0.195E-01
RMM:   3    -0.290404529978E+03   -0.54054E-04   -0.26382E-03   922   0.652E-02    0.131E-01
RMM:   4    -0.290404640315E+03   -0.11034E-03   -0.39360E-04   766   0.286E-02    0.732E-02
RMM:   5    -0.290404804250E+03   -0.16393E-03   -0.29042E-04   760   0.257E-02    0.300E-02
RMM:   6    -0.290404796128E+03    0.81216E-05   -0.34042E-05   676   0.973E-03    0.204E-02
RMM:   7    -0.290404792268E+03    0.38598E-05   -0.51572E-05   680   0.838E-03    0.168E-02
RMM:   8    -0.290404789609E+03    0.26591E-05   -0.59543E-06   572   0.411E-03    0.115E-02
RMM:   9    -0.290404789853E+03   -0.24326E-06   -0.12787E-05   592   0.467E-03    0.328E-03
RMM:  10    -0.290404789830E+03    0.22761E-07   -0.75783E-07   478   0.201E-03
  74 F= -.29037787E+03 E0= -.29037787E+03  d E =0.354878E-03  mag=     0.0000
       N       E                     dE             d eps       ncg     rms          rms(c)
RMM:   1    -0.290410388875E+03   -0.55990E-02   -0.59352E-01   764   0.129E+00    0.153E-01
RMM:   2    -0.290406619917E+03    0.37690E-02   -0.70023E-03   772   0.146E-01    0.114E-01
RMM:   3    -0.290406636450E+03   -0.16533E-04   -0.90027E-04   898   0.389E-02    0.807E-02
RMM:   4    -0.290406687163E+03   -0.50714E-04   -0.19080E-04   748   0.213E-02    0.434E-02
RMM:   5    -0.290406734165E+03   -0.47002E-04   -0.11213E-04   708   0.156E-02    0.209E-02
RMM:   6    -0.290406727401E+03    0.67646E-05   -0.13992E-05   620   0.598E-03    0.119E-02
RMM:   7    -0.290406726490E+03    0.91108E-06   -0.30904E-05   682   0.615E-03    0.107E-02
RMM:   8    -0.290406725548E+03    0.94171E-06   -0.23758E-06   522   0.284E-03
  75 F= -.29037941E+03 E0= -.29037941E+03  d E =-.118367E-02  mag=     0.0000
[...]
RMM:   1    -0.290425451798E+03   -0.14266E-03   -0.21401E-02   766   0.242E-01    0.288E-02
RMM:   2    -0.290425331659E+03    0.12014E-03   -0.23991E-04   750   0.261E-02    0.214E-02
RMM:   3    -0.290425332579E+03   -0.91952E-06   -0.30369E-05   720   0.742E-03    0.140E-02
RMM:   4    -0.290425334318E+03   -0.17392E-05   -0.56769E-06   574   0.426E-03    0.743E-03
RMM:   5    -0.290425335098E+03   -0.78035E-06   -0.21143E-06   508   0.304E-03    0.318E-03
RMM:   6    -0.290425335061E+03    0.37409E-07   -0.37360E-07   428   0.172E-03
 218 F= -.29039878E+03 E0= -.29039878E+03  d E =-.939390E-04  mag=     0.0000
       N       E                     dE             d eps       ncg     rms          rms(c)
RMM:   1    -0.290425726461E+03   -0.39136E-03   -0.85664E-02   766   0.484E-01    0.574E-02
RMM:   2    -0.290425247753E+03    0.47871E-03   -0.95779E-04   768   0.520E-02    0.430E-02
RMM:   3    -0.290425252177E+03   -0.44240E-05   -0.12073E-04   862   0.146E-02    0.282E-02
RMM:   4    -0.290425257663E+03   -0.54857E-05   -0.22342E-05   664   0.806E-03    0.148E-02
RMM:   5    -0.290425260302E+03   -0.26392E-05   -0.84372E-06   604   0.507E-03    0.623E-03
RMM:   6    -0.290425260083E+03    0.21860E-06   -0.12113E-06   498   0.232E-03
 219 F= -.29039876E+03 E0= -.29039876E+03  d E =-.787161E-04  mag=     0.0000
       N       E                     dE             d eps       ncg     rms          rms(c)
RMM:   1    -0.290425316021E+03   -0.55719E-04   -0.15696E-03   756   0.656E-02    0.923E-03
RMM:   2    -0.290425307336E+03    0.86855E-05   -0.18520E-05   636   0.822E-03    0.722E-03
RMM:   3    -0.290425307475E+03   -0.13879E-06   -0.21107E-06   484   0.255E-03    0.424E-03
RMM:   4    -0.290425307730E+03   -0.25500E-06   -0.74828E-07   440   0.202E-03    0.197E-03
RMM:   5    -0.290425307756E+03   -0.26426E-07   -0.18813E-07   394   0.136E-03    0.911E-04
RMM:   6    -0.290425307794E+03   -0.38173E-07   -0.75979E-08   310   0.713E-04
 220 F= -.29039878E+03 E0= -.29039878E+03  d E =-.186100E-04  mag=    -0.0000
       N       E                     dE             d eps       ncg     rms          rms(c)
RMM:   1    -0.290425476524E+03   -0.16877E-03   -0.13963E-02   766   0.196E-01    0.256E-02
RMM:   2    -0.290425400957E+03    0.75567E-04   -0.16434E-04   734   0.240E-02    0.194E-02
RMM:   3    -0.290425400195E+03    0.76201E-06   -0.17580E-05   660   0.617E-03    0.127E-02
RMM:   4    -0.290425401052E+03   -0.85753E-06   -0.53037E-06   576   0.416E-03    0.656E-03
RMM:   5    -0.290425401517E+03   -0.46436E-06   -0.16500E-06   468   0.280E-03    0.219E-03
RMM:   6    -0.290425401600E+03   -0.82922E-07   -0.20758E-07   406   0.134E-03
 221 F= -.29039880E+03 E0= -.29039880E+03  d E =-.413956E-04  mag=     0.0000
       N       E                     dE             d eps       ncg     rms          rms(c)
RMM:   1    -0.290425665773E+03   -0.26426E-03   -0.55884E-02   766   0.392E-01    0.513E-02
RMM:   2    -0.290425367302E+03    0.29847E-03   -0.65607E-04   760   0.480E-02    0.389E-02
RMM:   3    -0.290425364037E+03    0.32643E-05   -0.70529E-05   782   0.121E-02    0.256E-02
RMM:   4    -0.290425365693E+03   -0.16560E-05   -0.21579E-05   666   0.791E-03    0.129E-02
RMM:   5    -0.290425366978E+03   -0.12845E-05   -0.62679E-06   572   0.448E-03    0.440E-03
RMM:   6    -0.290425367148E+03   -0.17048E-06   -0.55913E-07   464   0.192E-03
 222 F= -.29039863E+03 E0= -.29039863E+03  d E =0.133332E-03  mag=     0.0000
       N       E                     dE             d eps       ncg     rms          rms(c)
RMM:   1    -0.290425538910E+03   -0.17193E-03   -0.21539E-02   766   0.244E-01    0.319E-02
RMM:   2    -0.290425422653E+03    0.11626E-03   -0.25489E-04   750   0.299E-02    0.238E-02
RMM:   3    -0.290425421253E+03    0.13998E-05   -0.27852E-05   684   0.761E-03    0.155E-02
RMM:   4    -0.290425421834E+03   -0.58078E-06   -0.76559E-06   604   0.484E-03    0.868E-03
RMM:   5    -0.290425422621E+03   -0.78665E-06   -0.29512E-06   476   0.333E-03    0.286E-03
RMM:   6    -0.290425422747E+03   -0.12597E-06   -0.33197E-07   398   0.159E-03
 223 F= -.29039879E+03 E0= -.29039879E+03  d E =-.306533E-04  mag=     0.0000
       N       E                     dE             d eps       ncg     rms          rms(c)
RMM:   1    -0.290425427720E+03   -0.50993E-05   -0.15108E-04   694   0.205E-02    0.277E-03
RMM:   2    -0.290425426754E+03    0.96594E-06   -0.18011E-06   426   0.263E-03    0.160E-03
RMM:   3    -0.290425426770E+03   -0.15714E-07   -0.30887E-07   388   0.123E-03    0.107E-03
RMM:   4    -0.290425426787E+03   -0.16773E-07   -0.87328E-08   308   0.860E-04    0.839E-04
RMM:   5    -0.290425426798E+03   -0.11556E-07   -0.36596E-08   240   0.605E-04    0.390E-04
RMM:   6    -0.290425426800E+03   -0.17353E-08   -0.99288E-09   162   0.474E-04
 224 F= -.29039879E+03 E0= -.29039879E+03  d E =0.305096E-05  mag=    -0.0000
       N       E                     dE             d eps       ncg     rms          rms(c)
RMM:   1    -0.290425446418E+03   -0.19620E-04   -0.13773E-03   756   0.617E-02    0.702E-03
RMM:   2    -0.290425437890E+03    0.85277E-05   -0.16181E-05   652   0.703E-03    0.516E-03
RMM:   3    -0.290425438022E+03   -0.13173E-06   -0.16607E-06   450   0.220E-03    0.368E-03
RMM:   4    -0.290425438271E+03   -0.24920E-06   -0.38055E-07   396   0.159E-03    0.205E-03
RMM:   5    -0.290425438351E+03   -0.80279E-07   -0.21595E-07   376   0.130E-03    0.727E-04
RMM:   6    -0.290425438351E+03    0.61300E-09   -0.48448E-08   286   0.713E-04
 225 F= -.29039881E+03 E0= -.29039881E+03  d E =-.169043E-04  mag=    -0.0000
       N       E                     dE             d eps       ncg     rms          rms(c)
RMM:   1    -0.290425488987E+03   -0.50636E-04   -0.55131E-03   766   0.123E-01    0.141E-02
RMM:   2    -0.290425454968E+03    0.34019E-04   -0.64696E-05   704   0.139E-02    0.103E-02
RMM:   3    -0.290425455494E+03   -0.52539E-06   -0.71025E-06   576   0.409E-03    0.746E-03
RMM:   4    -0.290425456317E+03   -0.82347E-06   -0.13691E-06   486   0.263E-03    0.421E-03
RMM:   5    -0.290425456710E+03   -0.39252E-06   -0.71436E-07   434   0.217E-03    0.159E-03
RMM:   6    -0.290425456689E+03    0.20635E-07   -0.15522E-07   402   0.122E-03
 226 F= -.29039884E+03 E0= -.29039884E+03  d E =-.508422E-04  mag=     0.0000
       N       E                     dE             d eps       ncg     rms          rms(c)
RMM:   1    -0.290425463948E+03   -0.72382E-05   -0.49696E-04   748   0.370E-02    0.421E-03
RMM:   2    -0.290425460860E+03    0.30879E-05   -0.57154E-06   554   0.430E-03    0.319E-03
RMM:   3    -0.290425460936E+03   -0.75570E-07   -0.54786E-07   422   0.157E-03    0.216E-03
RMM:   4    -0.290425461075E+03   -0.13954E-06   -0.19371E-07   386   0.117E-03    0.929E-04
RMM:   5    -0.290425461080E+03   -0.51077E-08   -0.75933E-08   323   0.825E-04    0.370E-04
RMM:   6    -0.290425461081E+03   -0.38017E-09   -0.24473E-08   209   0.527E-04
 227 F= -.29039885E+03 E0= -.29039885E+03  d E =-.582340E-04  mag=    -0.0000
       N       E                     dE             d eps       ncg     rms          rms(c)
RMM:   1    -0.290425475412E+03   -0.14331E-04   -0.11995E-03   756   0.577E-02    0.643E-03
RMM:   2    -0.290425468069E+03    0.73425E-05   -0.15127E-05   650   0.659E-03    0.477E-03
RMM:   3    -0.290425468141E+03   -0.71825E-07   -0.13466E-06   454   0.212E-03    0.340E-03
RMM:   4    -0.290425468414E+03   -0.27309E-06   -0.38051E-07   414   0.158E-03    0.159E-03
RMM:   5    -0.290425468455E+03   -0.40818E-07   -0.17776E-07   384   0.122E-03    0.674E-04
RMM:   6    -0.290425468452E+03    0.28540E-08   -0.46048E-08   282   0.688E-04
 228 F= -.29039886E+03 E0= -.29039886E+03  d E =-.147546E-04  mag=     0.0000
       N       E                     dE             d eps       ncg     rms          rms(c)
RMM:   1    -0.290425502636E+03   -0.34181E-04   -0.42513E-03   766   0.109E-01    0.121E-02
RMM:   2    -0.290425476612E+03    0.26024E-04   -0.52973E-05   694   0.122E-02    0.896E-03
RMM:   3    -0.290425476945E+03   -0.33285E-06   -0.53271E-06   540   0.370E-03    0.641E-03
RMM:   4    -0.290425477761E+03   -0.81561E-06   -0.12727E-06   482   0.262E-03    0.318E-03
RMM:   5    -0.290425477941E+03   -0.17962E-06   -0.49157E-07   422   0.193E-03    0.134E-03
RMM:   6    -0.290425477924E+03    0.16500E-07   -0.14062E-07   379   0.114E-03
 229 F= -.29039889E+03 E0= -.29039889E+03  d E =-.381279E-04  mag=    -0.0000
       N       E                     dE             d eps       ncg     rms          rms(c)
RMM:   1    -0.290425486722E+03   -0.87813E-05   -0.63555E-04   756   0.421E-02    0.471E-03
RMM:   2    -0.290425482605E+03    0.41164E-05   -0.74629E-06   571   0.487E-03    0.358E-03
RMM:   3    -0.290425482720E+03   -0.11417E-06   -0.75189E-07   430   0.172E-03    0.234E-03
RMM:   4    -0.290425482895E+03   -0.17509E-06   -0.23098E-07   400   0.125E-03    0.103E-03
RMM:   5    -0.290425482909E+03   -0.14399E-07   -0.90606E-08   338   0.894E-04    0.425E-04
RMM:   6    -0.290425482916E+03   -0.71141E-08   -0.28258E-08   216   0.546E-04
 230 F= -.29039889E+03 E0= -.29039889E+03  d E =0.224506E-05  mag=    -0.0000
       N       E                     dE             d eps       ncg     rms          rms(c)
RMM:   1    -0.290425529696E+03   -0.46786E-04   -0.56966E-03   766   0.126E-01    0.140E-02
RMM:   2    -0.290425493105E+03    0.36590E-04   -0.68082E-05   708   0.143E-02    0.104E-02
RMM:   3    -0.290425493833E+03   -0.72834E-06   -0.77404E-06   566   0.412E-03    0.737E-03
RMM:   4    -0.290425494845E+03   -0.10111E-05   -0.15014E-06   484   0.269E-03    0.394E-03
RMM:   5    -0.290425495193E+03   -0.34874E-06   -0.69627E-07   430   0.218E-03    0.144E-03
RMM:   6    -0.290425495183E+03    0.10657E-07   -0.14580E-07   396   0.117E-03
 231 F= -.29039888E+03 E0= -.29039888E+03  d E =0.530851E-05  mag=     0.0000
       N       E                     dE             d eps       ncg     rms          rms(c)
RMM:   1    -0.290425644697E+03   -0.14950E-03   -0.22791E-02   766   0.252E-01    0.280E-02
RMM:   2    -0.290425499124E+03    0.14557E-03   -0.27230E-04   762   0.286E-02    0.208E-02
RMM:   3    -0.290425502083E+03   -0.29596E-05   -0.32670E-05   754   0.792E-03    0.149E-02
RMM:   4    -0.290425505574E+03   -0.34908E-05   -0.54490E-06   580   0.410E-03    0.788E-03
RMM:   5    -0.290425506912E+03   -0.13379E-05   -0.23599E-06   514   0.315E-03    0.300E-03
RMM:   6    -0.290425506790E+03    0.12212E-06   -0.32870E-07   452   0.158E-03
 232 F= -.29039886E+03 E0= -.29039886E+03  d E =0.247622E-04  mag=    -0.0000
       N       E                     dE             d eps       ncg     rms          rms(c)
RMM:   1    -0.290425560909E+03   -0.53997E-04   -0.97846E-03   766   0.165E-01    0.183E-02
RMM:   2    -0.290425498686E+03    0.62223E-04   -0.11555E-04   752   0.187E-02    0.134E-02
RMM:   3    -0.290425499578E+03   -0.89237E-06   -0.13717E-05   626   0.520E-03    0.932E-03
RMM:   4    -0.290425500497E+03   -0.91872E-06   -0.21979E-06   496   0.292E-03    0.529E-03
RMM:   5    -0.290425501057E+03   -0.56015E-06   -0.12298E-06   432   0.255E-03    0.194E-03
RMM:   6    -0.290425501016E+03    0.41000E-07   -0.17647E-07   378   0.128E-03
 233 F= -.29039888E+03 E0= -.29039888E+03  d E =0.469785E-05  mag=     0.0000
       N       E                     dE             d eps       ncg     rms          rms(c)
RMM:   1    -0.290425513443E+03   -0.12387E-04   -0.98492E-04   756   0.522E-02    0.564E-03
RMM:   2    -0.290425507245E+03    0.61982E-05   -0.11677E-05   566   0.579E-03    0.414E-03
RMM:   3    -0.290425507361E+03   -0.11603E-06   -0.15696E-06   428   0.193E-03    0.280E-03
RMM:   4    -0.290425507516E+03   -0.15498E-06   -0.26596E-07   394   0.125E-03    0.150E-03
RMM:   5    -0.290425507572E+03   -0.55605E-07   -0.14509E-07   328   0.105E-03    0.648E-04
RMM:   6    -0.290425507577E+03   -0.47803E-08   -0.30964E-08   247   0.618E-04
 234 F= -.29039889E+03 E0= -.29039889E+03  d E =-.261034E-05  mag=     0.0000
       N       E                     dE             d eps       ncg     rms          rms(c)
RMM:   1    -0.290425516309E+03   -0.87373E-05   -0.62303E-04   756   0.415E-02    0.450E-03
RMM:   2    -0.290425512373E+03    0.39364E-05   -0.74375E-06   538   0.462E-03    0.347E-03
RMM:   3    -0.290425512491E+03   -0.11830E-06   -0.75838E-07   410   0.164E-03    0.222E-03
RMM:   4    -0.290425512680E+03   -0.18868E-06   -0.21423E-07   362   0.114E-03    0.745E-04
RMM:   5    -0.290425512691E+03   -0.11198E-07   -0.75763E-08   289   0.801E-04    0.421E-04
RMM:   6    -0.290425512694E+03   -0.33651E-08   -0.27199E-08   196   0.552E-04
 235 F= -.29039889E+03 E0= -.29039889E+03  d E =-.702538E-05  mag=    -0.0000
       N       E                     dE             d eps       ncg     rms          rms(c)
RMM:   1    -0.290425530119E+03   -0.17428E-04   -0.14848E-03   756   0.642E-02    0.679E-03
RMM:   2    -0.290425520978E+03    0.91412E-05   -0.18480E-05   648   0.732E-03    0.531E-03
RMM:   3    -0.290425521266E+03   -0.28832E-06   -0.22442E-06   454   0.232E-03    0.361E-03
RMM:   4    -0.290425521688E+03   -0.42174E-06   -0.48517E-07   406   0.159E-03    0.120E-03
RMM:   5    -0.290425521716E+03   -0.28063E-07   -0.14944E-07   370   0.112E-03    0.705E-04
RMM:   6    -0.290425521713E+03    0.26284E-08   -0.46608E-08   268   0.670E-04
 236 F= -.29039890E+03 E0= -.29039890E+03  d E =-.560963E-05  mag=     0.0000
       N       E                     dE             d eps       ncg     rms          rms(c)
RMM:   1    -0.290425619267E+03   -0.97552E-04   -0.13351E-02   766   0.192E-01    0.203E-02
RMM:   2    -0.290425537812E+03    0.81455E-04   -0.16540E-04   754   0.217E-02    0.158E-02
RMM:   3    -0.290425539847E+03   -0.20343E-05   -0.21543E-05   674   0.612E-03    0.110E-02
RMM:   4    -0.290425542585E+03   -0.27379E-05   -0.39876E-06   540   0.348E-03    0.369E-03
RMM:   5    -0.290425542771E+03   -0.18672E-06   -0.58822E-07   456   0.200E-03    0.211E-03
RMM:   6    -0.290425542703E+03    0.68336E-07   -0.25096E-07   406   0.135E-03
 237 F= -.29039891E+03 E0= -.29039891E+03  d E =-.155265E-04  mag=    -0.0000
       N       E                     dE             d eps       ncg     rms          rms(c)
RMM:   1    -0.290425556061E+03   -0.13289E-04   -0.14030E-03   756   0.623E-02    0.669E-03
RMM:   2    -0.290425547372E+03    0.86884E-05   -0.17281E-05   644   0.704E-03    0.532E-03
RMM:   3    -0.290425547743E+03   -0.37104E-06   -0.20113E-06   484   0.227E-03    0.353E-03
RMM:   4    -0.290425548215E+03   -0.47200E-06   -0.45049E-07   416   0.158E-03    0.971E-04
RMM:   5    -0.290425548220E+03   -0.49731E-08   -0.12052E-07   374   0.102E-03    0.640E-04
RMM:   6    -0.290425548218E+03    0.19591E-08   -0.47648E-08   277   0.649E-04
 238 F= -.29039891E+03 E0= -.29039891E+03  d E =-.201400E-04  mag=    -0.0000
       N       E                     dE             d eps       ncg     rms          rms(c)
RMM:   1    -0.290425582243E+03   -0.34023E-04   -0.40763E-03   764   0.106E-01    0.120E-02
RMM:   2    -0.290425558292E+03    0.23950E-04   -0.50120E-05   684   0.132E-02    0.967E-03
RMM:   3    -0.290425558605E+03   -0.31316E-06   -0.52656E-06   528   0.347E-03    0.634E-03
RMM:   4    -0.290425559576E+03   -0.97009E-06   -0.16514E-06   482   0.261E-03    0.275E-03
RMM:   5    -0.290425559680E+03   -0.10398E-06   -0.39236E-07   418   0.181E-03    0.115E-03
RMM:   6    -0.290425559723E+03   -0.43499E-07   -0.11360E-07   355   0.949E-04
 239 F= -.29039889E+03 E0= -.29039889E+03  d E =0.237085E-04  mag=     0.0000
       N       E                     dE             d eps       ncg     rms          rms(c)
RMM:   1    -0.290425579037E+03   -0.19357E-04   -0.59452E-03   766   0.128E-01    0.145E-02
RMM:   2    -0.290425544269E+03    0.34768E-04   -0.73192E-05   688   0.159E-02    0.117E-02
RMM:   3    -0.290425544695E+03   -0.42585E-06   -0.80160E-06   580   0.418E-03    0.771E-03
RMM:   4    -0.290425546018E+03   -0.13233E-05   -0.23200E-06   504   0.299E-03    0.334E-03
RMM:   5    -0.290425546169E+03   -0.15057E-06   -0.52388E-07   438   0.205E-03    0.138E-03
RMM:   6    -0.290425546222E+03   -0.52854E-07   -0.13668E-07   378   0.106E-03
 240 F= -.29039883E+03 E0= -.29039883E+03  d E =0.774076E-04  mag=    -0.0000
       N       E                     dE             d eps       ncg     rms          rms(c)
RMM:   1    -0.290425567827E+03   -0.21658E-04   -0.12002E-03   756   0.571E-02    0.626E-03
RMM:   2    -0.290425560736E+03    0.70902E-05   -0.14864E-05   616   0.614E-03    0.498E-03
RMM:   3    -0.290425560844E+03   -0.10710E-06   -0.14463E-06   448   0.201E-03    0.348E-03
RMM:   4    -0.290425561222E+03   -0.37828E-06   -0.45393E-07   418   0.143E-03    0.915E-04
RMM:   5    -0.290425561248E+03   -0.25979E-07   -0.90524E-08   326   0.836E-04    0.525E-04
RMM:   6    -0.290425561239E+03    0.91950E-08   -0.40143E-08   246   0.584E-04
 241 F= -.29039886E+03 E0= -.29039886E+03  d E =-.306555E-04  mag=    -0.0000
       N       E                     dE             d eps       ncg     rms          rms(c)
RMM:   1    -0.290425651122E+03   -0.89874E-04   -0.10802E-02   766   0.171E-01    0.185E-02
RMM:   2    -0.290425588636E+03    0.62486E-04   -0.13398E-04   718   0.180E-02    0.147E-02
RMM:   3    -0.290425588933E+03   -0.29706E-06   -0.14104E-05   642   0.520E-03    0.105E-02
RMM:   4    -0.290425590978E+03   -0.20448E-05   -0.36405E-06   514   0.327E-03    0.342E-03
RMM:   5    -0.290425591340E+03   -0.36150E-06   -0.55522E-07   438   0.186E-03    0.193E-03
RMM:   6    -0.290425591278E+03    0.61760E-07   -0.22175E-07   396   0.129E-03
 242 F= -.29039893E+03 E0= -.29039893E+03  d E =-.924018E-04  mag=     0.0000
       N       E                     dE             d eps       ncg     rms          rms(c)
RMM:   1    -0.290425820120E+03   -0.22878E-03   -0.43240E-02   766   0.343E-01    0.371E-02
RMM:   2    -0.290425571270E+03    0.24885E-03   -0.53666E-04   764   0.360E-02    0.294E-02
RMM:   3    -0.290425572518E+03   -0.12479E-05   -0.58369E-05   796   0.101E-02    0.213E-02
RMM:   4    -0.290425578762E+03   -0.62437E-05   -0.14235E-05   636   0.579E-03    0.737E-03
RMM:   5    -0.290425580269E+03   -0.15071E-05   -0.21814E-06   514   0.295E-03    0.400E-03
RMM:   6    -0.290425579964E+03    0.30410E-06   -0.68967E-07   460   0.197E-03
 243 F= -.29039898E+03 E0= -.29039898E+03  d E =-.144412E-03  mag=     0.0000
       N       E                     dE             d eps       ncg     rms          rms(c)
RMM:   1    -0.290425615336E+03   -0.35068E-04   -0.38022E-03   760   0.102E-01    0.111E-02
RMM:   2    -0.290425593330E+03    0.22006E-04   -0.46803E-05   686   0.108E-02    0.841E-03
RMM:   3    -0.290425593126E+03    0.20407E-06   -0.50724E-06   484   0.326E-03    0.585E-03
RMM:   4    -0.290425593352E+03   -0.22585E-06   -0.11799E-06   432   0.205E-03    0.230E-03
RMM:   5    -0.290425593501E+03   -0.14859E-06   -0.33646E-07   398   0.144E-03    0.123E-03
RMM:   6    -0.290425593495E+03    0.53660E-08   -0.99494E-08   320   0.971E-04
 244 F= -.29039897E+03 E0= -.29039897E+03  d E =-.135258E-03  mag=    -0.0000
       N       E                     dE             d eps       ncg     rms          rms(c)
RMM:   1    -0.290425639639E+03   -0.46139E-04   -0.41872E-03   764   0.107E-01    0.116E-02
RMM:   2    -0.290425612855E+03    0.26784E-04   -0.47744E-05   682   0.121E-02    0.912E-03
RMM:   3    -0.290425613091E+03   -0.23540E-06   -0.45558E-06   488   0.313E-03    0.622E-03
RMM:   4    -0.290425614041E+03   -0.94985E-06   -0.14539E-06   448   0.244E-03    0.270E-03
RMM:   5    -0.290425614158E+03   -0.11756E-06   -0.40653E-07   406   0.181E-03    0.105E-03
RMM:   6    -0.290425614174E+03   -0.15909E-07   -0.95219E-08   336   0.887E-04
 245 F= -.29039896E+03 E0= -.29039896E+03  d E =0.833098E-05  mag=    -0.0000
