TS_BlakPhos                             
           1
    13.254400    0.000000    0.000000
     0.000000   13.128900    0.000000
     0.000000    0.000000   20.000000
   P    Ru   C    O 
  48   1   1   3
Direct configuration=     1
   0.06749678  0.20878721  0.04400731
   0.19353955  0.32034757  0.04306577
   0.19080335  0.03932053  0.14772846
   0.06623439  0.15292517  0.14977854
   0.31085979  0.19938984  0.03897615
   0.44095209  0.30483351  0.02601508
   0.44048526  0.03925249  0.14764056
   0.31589469  0.15226189  0.14685006
   0.57041005  0.19815529  0.03806867
   0.68948745  0.31782086  0.04043983
   0.69001120  0.03953900  0.14797261
   0.56495944  0.15250394  0.14633308
   0.81556339  0.20664758  0.04304267
   0.94088688  0.31934146  0.04095990
   0.94055512  0.04007923  0.14932071
   0.81498830  0.15288114  0.14925781
   0.06571212  0.53883522  0.03256979
   0.19008658  0.65335853  0.02979681
   0.19448898  0.38515597  0.14835250
   0.06623215  0.49374587  0.14070631
   0.31692136  0.54223454  0.02656637
   0.44011418  0.65474842  0.02541849
   0.44064524  0.36266034  0.13063637
   0.32989113  0.48796300  0.13419849
   0.56386438  0.54183779  0.02683824
   0.69056469  0.65290824  0.03177068
   0.68808419  0.38065202  0.14595649
   0.55538340  0.48443645  0.13325142
   0.81482131  0.53836499  0.03338419
   0.93997726  0.65178440  0.03336880
   0.94109333  0.38014410  0.14518033
   0.81471704  0.49198131  0.14113591
   0.06457423  0.87323453  0.04046563
   0.18911176  0.98611053  0.04117317
   0.19096616  0.69807076  0.13782249
   0.06580846  0.81058932  0.14472151
   0.31497736  0.87452972  0.03942165
   0.44046351  0.98649903  0.04128877
   0.43730573  0.70171813  0.13589580
   0.31285844  0.81389723  0.14448095
   0.56474217  0.87329528  0.04093736
   0.69028205  0.98516140  0.04172402
   0.68934456  0.69824339  0.13972122
   0.56497516  0.81110448  0.14621069
   0.81583541  0.87335606  0.04024688
   0.94046272  0.98664659  0.04289277
   0.93973449  0.69945670  0.14090098
   0.81420308  0.81146805  0.14457871
   0.43719527  0.56920919  0.20805452
   0.33504112  0.61578419  0.27348755
   0.46694553  0.57464002  0.30448702
   0.49638905  0.50050323  0.28445836
   0.26380370  0.65098428  0.29512653
Direct configuration=     2
   0.06746288  0.20881515  0.04400110
   0.19354480  0.32039203  0.04313002
   0.19084706  0.03925084  0.14774774
   0.06625301  0.15288964  0.14979351
   0.31087507  0.19940381  0.03902688
   0.44109776  0.30466344  0.02608954
   0.44048005  0.03920049  0.14763905
   0.31593137  0.15227135  0.14686316
   0.57054983  0.19806189  0.03804655
   0.68946193  0.31774202  0.04046669
   0.69004517  0.03949081  0.14798179
   0.56494948  0.15250079  0.14633129
   0.81550028  0.20659591  0.04306286
   0.94095225  0.31929140  0.04095737
   0.94058874  0.04006296  0.14933818
   0.81500692  0.15288682  0.14925080
   0.06571823  0.53879197  0.03252977
   0.19011233  0.65335020  0.02977085
   0.19477275  0.38515303  0.14827849
   0.06618956  0.49373413  0.14065009
   0.31692497  0.54210933  0.02660935
   0.44012801  0.65482741  0.02547902
   0.44045957  0.36283635  0.13048746
   0.33000559  0.48720790  0.13388991
   0.56385790  0.54184920  0.02696316
   0.69063496  0.65292965  0.03174057
   0.68837441  0.38067242  0.14589399
   0.55496683  0.48469807  0.13330739
   0.81484686  0.53833371  0.03333954
   0.93997944  0.65176387  0.03333948
   0.94114365  0.38016155  0.14516444
   0.81472959  0.49186023  0.14112318
   0.06467740  0.87325109  0.04048551
   0.18903333  0.98609126  0.04113098
   0.19103792  0.69805653  0.13773771
   0.06578743  0.81050202  0.14470435
   0.31488910  0.87455872  0.03954804
   0.44050204  0.98642913  0.04133767
   0.43729176  0.70227620  0.13576271
   0.31308467  0.81395463  0.14431292
   0.56485089  0.87326608  0.04104132
   0.69046429  0.98516112  0.04167752
   0.68930633  0.69817584  0.13966605
   0.56479412  0.81106919  0.14609570
   0.81576370  0.87337388  0.04025532
   0.94046581  0.98664422  0.04292259
   0.93975899  0.69947052  0.14089471
   0.81431952  0.81143757  0.14455970
   0.43443911  0.57106523  0.20452530
   0.33760911  0.61299868  0.27039014
   0.46082306  0.60087673  0.31447799
   0.50499264  0.47301717  0.28007734
   0.25949928  0.65334881  0.29698830
Direct configuration=     3
   0.06746908  0.20881004  0.04400223
   0.19354384  0.32038390  0.04311826
   0.19083907  0.03926358  0.14774421
   0.06624961  0.15289614  0.14979077
   0.31087228  0.19940125  0.03901760
   0.44107112  0.30469454  0.02607592
   0.44048100  0.03921000  0.14763933
   0.31592466  0.15226962  0.14686077
   0.57052426  0.19807898  0.03805060
   0.68946660  0.31775644  0.04046178
   0.69003896  0.03949962  0.14798011
   0.56495130  0.15250137  0.14633162
   0.81551183  0.20660536  0.04305917
   0.94094030  0.31930055  0.04095783
   0.94058259  0.04006594  0.14933498
   0.81500352  0.15288578  0.14925208
   0.06571711  0.53879988  0.03253709
   0.19010762  0.65335172  0.02977560
   0.19472084  0.38515357  0.14829202
   0.06619735  0.49373627  0.14066037
   0.31692431  0.54213223  0.02660149
   0.44012548  0.65481296  0.02546795
   0.44049353  0.36280415  0.13051470
   0.32998465  0.48734602  0.13394635
   0.56385909  0.54184711  0.02694031
   0.69062211  0.65292574  0.03174608
   0.68832132  0.38066869  0.14590542
   0.55504302  0.48465022  0.13329716
   0.81484218  0.53833943  0.03334771
   0.93997904  0.65176763  0.03334484
   0.94113445  0.38015835  0.14516735
   0.81472730  0.49188238  0.14112551
   0.06465852  0.87324807  0.04048187
   0.18904767  0.98609478  0.04113870
   0.19102480  0.69805914  0.13775321
   0.06579128  0.81051798  0.14470749
   0.31490524  0.87455342  0.03952493
   0.44049499  0.98644191  0.04132873
   0.43729432  0.70217412  0.13578706
   0.31304329  0.81394413  0.14434366
   0.56483100  0.87327142  0.04102230
   0.69043095  0.98516117  0.04168603
   0.68931332  0.69818819  0.13967614
   0.56482724  0.81107564  0.14611673
   0.81577682  0.87337062  0.04025378
   0.94046524  0.98664465  0.04291713
   0.93975451  0.69946799  0.14089586
   0.81429822  0.81144315  0.14456318
   0.43494324  0.57072574  0.20517083
   0.33713940  0.61350818  0.27095669
   0.46194292  0.59607776  0.31265054
   0.50341895  0.47804466  0.28087867
   0.26028660  0.65291632  0.29664777
Direct configuration=     4
   0.06747323  0.20880662  0.04400299
   0.19354319  0.32037845  0.04311040
   0.19083372  0.03927212  0.14774185
   0.06624733  0.15290049  0.14978893
   0.31087041  0.19939954  0.03901139
   0.44105328  0.30471537  0.02606680
   0.44048164  0.03921637  0.14763951
   0.31592017  0.15226846  0.14685916
   0.57050714  0.19809042  0.03805331
   0.68946972  0.31776610  0.04045849
   0.69003480  0.03950553  0.14797899
   0.56495252  0.15250175  0.14633184
   0.81551955  0.20661169  0.04305670
   0.94093229  0.31930669  0.04095814
   0.94057847  0.04006793  0.14933284
   0.81500124  0.15288508  0.14925294
   0.06571636  0.53880518  0.03254199
   0.19010447  0.65335274  0.02977878
   0.19468609  0.38515393  0.14830109
   0.06620257  0.49373771  0.14066726
   0.31692387  0.54214757  0.02659622
   0.44012379  0.65480328  0.02546054
   0.44051627  0.36278260  0.13053294
   0.32997063  0.48743849  0.13398414
   0.56385988  0.54184571  0.02692501
   0.69061350  0.65292311  0.03174977
   0.68828578  0.38066619  0.14591308
   0.55509404  0.48461818  0.13329030
   0.81483905  0.53834326  0.03335318
   0.93997877  0.65177014  0.03334843
   0.94112829  0.38015622  0.14516929
   0.81472576  0.49189721  0.14112707
   0.06464589  0.87324604  0.04047944
   0.18905728  0.98609714  0.04114387
   0.19101601  0.69806088  0.13776360
   0.06579385  0.81052868  0.14470959
   0.31491605  0.87454986  0.03950945
   0.44049027  0.98645048  0.04132274
   0.43729603  0.70210578  0.13580336
   0.31301559  0.81393710  0.14436423
   0.56481769  0.87327500  0.04100957
   0.69040863  0.98516121  0.04169172
   0.68931800  0.69819647  0.13968290
   0.56484941  0.81107996  0.14613081
   0.81578560  0.87336844  0.04025275
   0.94046486  0.98664494  0.04291348
   0.93975151  0.69946630  0.14089662
   0.81428396  0.81144688  0.14456551
   0.43528079  0.57049843  0.20560306
   0.33682489  0.61384932  0.27133603
   0.46269275  0.59286453  0.31142693
   0.50236526  0.48141091  0.28141522
   0.26081377  0.65262673  0.29641975
Direct configuration=     5
   0.06748310  0.20879849  0.04400480
   0.19354167  0.32036551  0.04309170
   0.19082099  0.03929241  0.14773624
   0.06624190  0.15291083  0.14978458
   0.31086596  0.19939548  0.03899662
   0.44101087  0.30476488  0.02604513
   0.44048316  0.03923150  0.14763995
   0.31590949  0.15226571  0.14685535
   0.57046646  0.19811760  0.03805975
   0.68947715  0.31778904  0.04045067
   0.69002491  0.03951955  0.14797631
   0.56495542  0.15250267  0.14633236
   0.81553793  0.20662673  0.04305082
   0.94091326  0.31932126  0.04095888
   0.94056869  0.04007267  0.14932776
   0.81499582  0.15288343  0.14925498
   0.06571458  0.53881777  0.03255364
   0.19009697  0.65335517  0.02978633
   0.19460349  0.38515478  0.14832263
   0.06621497  0.49374113  0.14068362
   0.31692282  0.54218401  0.02658371
   0.44011976  0.65478029  0.02544292
   0.44057031  0.36273136  0.13057628
   0.32993732  0.48765829  0.13407396
   0.56386177  0.54184239  0.02688865
   0.69059304  0.65291688  0.03175853
   0.68820130  0.38066025  0.14593127
   0.55521530  0.48454203  0.13327401
   0.81483162  0.53835237  0.03336617
   0.93997814  0.65177612  0.03335697
   0.94111364  0.38015114  0.14517392
   0.81472211  0.49193245  0.14113077
   0.06461586  0.87324122  0.04047365
   0.18908011  0.98610275  0.04115614
   0.19099512  0.69806502  0.13778827
   0.06579998  0.81055409  0.14471459
   0.31494174  0.87454142  0.03947266
   0.44047906  0.98647082  0.04130850
   0.43730010  0.70194333  0.13584210
   0.31294974  0.81392039  0.14441315
   0.56478604  0.87328350  0.04097931
   0.69035559  0.98516129  0.04170526
   0.68932913  0.69821613  0.13969895
   0.56490211  0.81109024  0.14616429
   0.81580648  0.87336325  0.04025029
   0.94046397  0.98664563  0.04290480
   0.93974438  0.69946227  0.14089845
   0.81425007  0.81145575  0.14457104
   0.43608305  0.56995817  0.20663034
   0.33607740  0.61466013  0.27223762
   0.46447487  0.58522757  0.30851877
   0.49986094  0.48941152  0.28269044
   0.26206670  0.65193846  0.29587783
Direct configuration=     6
   0.06747949  0.20880147  0.04400414
   0.19354223  0.32037025  0.04309855
   0.19082565  0.03928498  0.14773830
   0.06624389  0.15290704  0.14978617
   0.31086759  0.19939697  0.03900203
   0.44102641  0.30474674  0.02605307
   0.44048260  0.03922596  0.14763979
   0.31591340  0.15226672  0.14685675
   0.57048136  0.19810764  0.03805739
   0.68947443  0.31778064  0.04045354
   0.69002853  0.03951442  0.14797729
   0.56495436  0.15250234  0.14633217
   0.81553120  0.20662122  0.04305297
   0.94092023  0.31931592  0.04095861
   0.94057227  0.04007093  0.14932962
   0.81499780  0.15288404  0.14925424
   0.06571523  0.53881316  0.03254937
   0.19009972  0.65335428  0.02978356
   0.19463375  0.38515447  0.14831474
   0.06621042  0.49373988  0.14067763
   0.31692320  0.54217066  0.02658830
   0.44012124  0.65478871  0.02544937
   0.44055052  0.36275013  0.13056040
   0.32994952  0.48757777  0.13404106
   0.56386107  0.54184361  0.02690197
   0.69060054  0.65291916  0.03175532
   0.68823225  0.38066243  0.14592460
   0.55517088  0.48456992  0.13327997
   0.81483434  0.53834903  0.03336141
   0.93997837  0.65177393  0.03335384
   0.94111900  0.38015300  0.14517222
   0.81472344  0.49191954  0.14112942
   0.06462686  0.87324298  0.04047577
   0.18907175  0.98610070  0.04115165
   0.19100277  0.69806350  0.13777923
   0.06579773  0.81054478  0.14471276
   0.31493233  0.87454451  0.03948613
   0.44048317  0.98646337  0.04131372
   0.43729861  0.70200284  0.13582791
   0.31297386  0.81392651  0.14439523
   0.56479764  0.87328038  0.04099040
   0.69037502  0.98516126  0.04170030
   0.68932505  0.69820893  0.13969307
   0.56488280  0.81108647  0.14615202
   0.81579883  0.87336515  0.04025119
   0.94046430  0.98664538  0.04290798
   0.93974699  0.69946375  0.14089778
   0.81426248  0.81145250  0.14456901
   0.43578917  0.57015608  0.20625403
   0.33635122  0.61436312  0.27190735
   0.46382205  0.58802511  0.30958408
   0.50077831  0.48648076  0.28222331
   0.26160773  0.65219059  0.29607634
Direct configuration=     7
   0.06748022  0.20880086  0.04400428
   0.19354211  0.32036929  0.04309715
   0.19082471  0.03928649  0.14773788
   0.06624349  0.15290781  0.14978585
   0.31086726  0.19939666  0.03900093
   0.44102325  0.30475043  0.02605145
   0.44048271  0.03922709  0.14763982
   0.31591261  0.15226651  0.14685646
   0.57047833  0.19810967  0.03805787
   0.68947498  0.31778235  0.04045295
   0.69002780  0.03951546  0.14797709
   0.56495458  0.15250240  0.14633221
   0.81553256  0.20662234  0.04305253
   0.94091882  0.31931700  0.04095866
   0.94057154  0.04007128  0.14932924
   0.81499740  0.15288391  0.14925439
   0.06571510  0.53881409  0.03255024
   0.19009916  0.65335446  0.02978413
   0.19462760  0.38515453  0.14831635
   0.06621135  0.49374014  0.14067884
   0.31692312  0.54217338  0.02658737
   0.44012094  0.65478700  0.02544806
   0.44055454  0.36274632  0.13056363
   0.32994704  0.48759414  0.13404775
   0.56386121  0.54184336  0.02689926
   0.69059901  0.65291870  0.03175597
   0.68822596  0.38066198  0.14592596
   0.55517991  0.48456425  0.13327876
   0.81483379  0.53834971  0.03336238
   0.93997832  0.65177437  0.03335447
   0.94111791  0.38015262  0.14517257
   0.81472317  0.49192217  0.14112969
   0.06462462  0.87324262  0.04047534
   0.18907345  0.98610111  0.04115256
   0.19100122  0.69806381  0.13778107
   0.06579819  0.81054667  0.14471313
   0.31493424  0.87454388  0.03948339
   0.44048233  0.98646488  0.04131266
   0.43729891  0.70199074  0.13583079
   0.31296895  0.81392527  0.14439887
   0.56479528  0.87328102  0.04098814
   0.69037107  0.98516126  0.04170130
   0.68932588  0.69821039  0.13969427
   0.56488673  0.81108724  0.14615452
   0.81580038  0.87336477  0.04025101
   0.94046423  0.98664543  0.04290733
   0.93974646  0.69946345  0.14089792
   0.81425996  0.81145316  0.14456942
   0.43584890  0.57011585  0.20633052
   0.33629557  0.61442349  0.27197448
   0.46395474  0.58745650  0.30936755
   0.50059185  0.48707646  0.28231825
   0.26170102  0.65213934  0.29603599
Direct configuration=     8
   0.06751562  0.20883916  0.04404278
   0.19361810  0.32041082  0.04309582
   0.19085605  0.03923151  0.14774340
   0.06625884  0.15286991  0.14979581
   0.31087696  0.19939007  0.03904548
   0.44112478  0.30464439  0.02612227
   0.44048460  0.03919145  0.14763665
   0.31594146  0.15226776  0.14686097
   0.57058167  0.19799435  0.03805695
   0.68946359  0.31774598  0.04049692
   0.69006154  0.03947419  0.14797434
   0.56495038  0.15251796  0.14631739
   0.81548886  0.20655492  0.04306365
   0.94095070  0.31928895  0.04095199
   0.94059710  0.04005268  0.14933906
   0.81501085  0.15289561  0.14925036
   0.06573010  0.53878676  0.03251640
   0.19012454  0.65333514  0.02975648
   0.19471228  0.38519912  0.14837529
   0.06619178  0.49372968  0.14062228
   0.31695592  0.54215585  0.02657828
   0.44010985  0.65481052  0.02543900
   0.44048961  0.36266705  0.13045875
   0.33036201  0.48733099  0.13366327
   0.56385066  0.54181879  0.02695733
   0.69063161  0.65291411  0.03173476
   0.68847874  0.38060660  0.14587023
   0.55494802  0.48490656  0.13320814
   0.81485102  0.53832771  0.03333839
   0.93999026  0.65175704  0.03333708
   0.94114365  0.38015043  0.14516781
   0.81472489  0.49183852  0.14109665
   0.06468847  0.87323079  0.04048059
   0.18902116  0.98612391  0.04115006
   0.19106328  0.69801330  0.13769050
   0.06579403  0.81049819  0.14470798
   0.31488797  0.87456023  0.03954556
   0.44051054  0.98642702  0.04135645
   0.43700829  0.70230007  0.13551385
   0.31305215  0.81403635  0.14432656
   0.56482178  0.87324309  0.04101805
   0.69043641  0.98516206  0.04171818
   0.68935474  0.69814846  0.13965052
   0.56487033  0.81107383  0.14614425
   0.81579457  0.87334663  0.04024935
   0.94050263  0.98664007  0.04293479
   0.93976492  0.69944082  0.14087781
   0.81433328  0.81143747  0.14455768
   0.43491131  0.56991091  0.20612989
   0.33314706  0.61551892  0.27173998
   0.46476514  0.58787782  0.31068014
   0.49878216  0.48732233  0.28301043
   0.26485064  0.65059962  0.29556015
Direct configuration=     9
   0.06750520  0.20882788  0.04403144
   0.19359572  0.32039859  0.04309621
   0.19084682  0.03924770  0.14774177
   0.06625431  0.15288107  0.14979288
   0.31087410  0.19939201  0.03903236
   0.44109487  0.30467562  0.02610141
   0.44048405  0.03920195  0.14763758
   0.31593296  0.15226739  0.14685964
   0.57055124  0.19802832  0.03805722
   0.68946695  0.31775669  0.04048397
   0.69005160  0.03948635  0.14797515
   0.56495162  0.15251338  0.14632176
   0.81550173  0.20657478  0.04306038
   0.94094131  0.31929721  0.04095395
   0.94058957  0.04005816  0.14933617
   0.81500689  0.15289217  0.14925154
   0.06572568  0.53879481  0.03252637
   0.19011706  0.65334083  0.02976463
   0.19468734  0.38518599  0.14835793
   0.06619755  0.49373276  0.14063894
   0.31694626  0.54216101  0.02658096
   0.44011312  0.65480359  0.02544167
   0.44050873  0.36269040  0.13048964
   0.33023978  0.48740850  0.13377652
   0.56385377  0.54182603  0.02694022
   0.69062201  0.65291546  0.03174101
   0.68840429  0.38062291  0.14588664
   0.55501632  0.48480573  0.13322894
   0.81484595  0.53833419  0.03334546
   0.93998675  0.65176215  0.03334220
   0.94113607  0.38015107  0.14516921
   0.81472438  0.49186316  0.14110638
   0.06466967  0.87323427  0.04047904
   0.18903656  0.98611719  0.04115080
   0.19104500  0.69802818  0.13771718
   0.06579526  0.81051247  0.14470949
   0.31490160  0.87455542  0.03952725
   0.44050223  0.98643817  0.04134355
   0.43709389  0.70220896  0.13560721
   0.31302764  0.81400363  0.14434786
   0.56481398  0.87325426  0.04100924
   0.69041717  0.98516183  0.04171321
   0.68934624  0.69816670  0.13966340
   0.56487516  0.81107778  0.14614727
   0.81579628  0.87335197  0.04024984
   0.94049132  0.98664165  0.04292671
   0.93975948  0.69944749  0.14088373
   0.81431168  0.81144209  0.14456114
   0.43518747  0.56997127  0.20618898
   0.33407443  0.61519627  0.27180905
   0.46452645  0.58775372  0.31029353
   0.49931519  0.48724991  0.28280656
   0.26392294  0.65105313  0.29570031
Direct configuration=    10
   0.06755184  0.20886498  0.04407281
   0.19367745  0.32043880  0.04310004
   0.19088415  0.03918748  0.14774882
   0.06627706  0.15283642  0.14980763
   0.31089114  0.19938027  0.03908078
   0.44120752  0.30454664  0.02616524
   0.44048817  0.03916455  0.14763892
   0.31596496  0.15226313  0.14687144
   0.57066258  0.19789427  0.03805971
   0.68945610  0.31771460  0.04052401
   0.69008956  0.03944142  0.14797639
   0.56495225  0.15252034  0.14631024
   0.81546424  0.20649973  0.04307145
   0.94097530  0.31926045  0.04094742
   0.94061955  0.04003728  0.14934983
   0.81502528  0.15289821  0.14925074
   0.06574289  0.53876280  0.03248259
   0.19014920  0.65331109  0.02973050
   0.19479049  0.38524790  0.14841455
   0.06618255  0.49371867  0.14057056
   0.31699063  0.54214509  0.02654308
   0.44010448  0.65482850  0.02540175
   0.44047279  0.36259545  0.13038274
   0.33066578  0.48714060  0.13337240
   0.56384212  0.54180749  0.02699437
   0.69065752  0.65290716  0.03171091
   0.68864978  0.38057814  0.14583364
   0.55473501  0.48517002  0.13319031
   0.81486718  0.53830721  0.03331497
   0.94000182  0.65174142  0.03331858
   0.94116638  0.38014669  0.14516133
   0.81473455  0.49177573  0.14106417
   0.06473707  0.87322145  0.04048670
   0.18898338  0.98614513  0.04115000
   0.19111660  0.69798118  0.13761058
   0.06579827  0.81044861  0.14470126
   0.31485147  0.87458437  0.03958968
   0.44053400  0.98639182  0.04139070
   0.43678886  0.70246401  0.13528724
   0.31309998  0.81413233  0.14426611
   0.56484814  0.87321397  0.04104079
   0.69048268  0.98515985  0.04173321
   0.68938115  0.69809528  0.13961390
   0.56485910  0.81105418  0.14613646
   0.81579770  0.87333066  0.04024815
   0.94053795  0.98662817  0.04295670
   0.93978266  0.69941364  0.14085625
   0.81438797  0.81141624  0.14454798
   0.43430086  0.56971481  0.20626247
   0.33400200  0.61470160  0.27041693
   0.46545138  0.58729393  0.31136678
   0.49692377  0.48855290  0.28372264
   0.26402089  0.65105421  0.29627871
Direct configuration=    11
   0.06758972  0.20889511  0.04410641
   0.19374384  0.32047147  0.04310315
   0.19091446  0.03913856  0.14775454
   0.06629554  0.15280016  0.14981961
   0.31090497  0.19937073  0.03912011
   0.44129902  0.30444188  0.02621708
   0.44049152  0.03913418  0.14764001
   0.31599096  0.15225967  0.14688102
   0.57075301  0.19778539  0.03806173
   0.68944728  0.31768041  0.04055654
   0.69012040  0.03940493  0.14797740
   0.56495276  0.15252599  0.14630088
   0.81543378  0.20643877  0.04308045
   0.94100292  0.31923059  0.04094212
   0.94064391  0.04002032  0.14936092
   0.81504021  0.15290312  0.14925009
   0.06575687  0.53873681  0.03244703
   0.19017530  0.65328693  0.02970278
   0.19487427  0.38529818  0.14846053
   0.06617037  0.49370722  0.14051501
   0.31702666  0.54213215  0.02651231
   0.44009746  0.65484874  0.02536932
   0.44044359  0.36251833  0.13029591
   0.33101178  0.48692301  0.13304417
   0.56383267  0.54179244  0.02703835
   0.69068637  0.65290041  0.03168646
   0.68884917  0.38054177  0.14579059
   0.55450652  0.48546591  0.13315893
   0.81488442  0.53828529  0.03329020
   0.94001406  0.65172459  0.03329939
   0.94119100  0.38014312  0.14515493
   0.81474281  0.49170472  0.14102989
   0.06479181  0.87321103  0.04049291
   0.18894018  0.98616782  0.04114936
   0.19117476  0.69794300  0.13752400
   0.06580071  0.81039675  0.14469457
   0.31481075  0.87460788  0.03964039
   0.44055980  0.98635417  0.04142900
   0.43654110  0.70267117  0.13502736
   0.31315873  0.81423686  0.14419972
   0.56487590  0.87318125  0.04106641
   0.69053590  0.98515824  0.04174946
   0.68940951  0.69803727  0.13957370
   0.56484605  0.81103501  0.14612767
   0.81579886  0.87331335  0.04024678
   0.94057582  0.98661723  0.04298107
   0.93980149  0.69938615  0.14083393
   0.81444993  0.81139524  0.14453730
   0.43358074  0.56950650  0.20632216
   0.33394317  0.61429981  0.26928621
   0.46620264  0.58692047  0.31223851
   0.49498138  0.48961124  0.28446671
   0.26410045  0.65105509  0.29674851
Direct configuration=    12
   0.06766250  0.20892976  0.04415227
   0.19383479  0.32051140  0.04312135
   0.19096292  0.03906939  0.14777024
   0.06633749  0.15274166  0.14984850
   0.31094192  0.19934831  0.03917669
   0.44144924  0.30424558  0.02624966
   0.44050108  0.03909489  0.14765513
   0.31602626  0.15223654  0.14691089
   0.57087968  0.19760827  0.03807138
   0.68944144  0.31762588  0.04058403
   0.69016721  0.03935398  0.14799187
   0.56496823  0.15250108  0.14629622
   0.81541041  0.20635386  0.04309049
   0.94103876  0.31917147  0.04093409
   0.94068565  0.03999390  0.14938591
   0.81507298  0.15289397  0.14925786
   0.06578215  0.53869199  0.03237645
   0.19021637  0.65324099  0.02963802
   0.19503879  0.38539989  0.14850506
   0.06617493  0.49369638  0.14042997
   0.31709353  0.54212351  0.02640931
   0.44010734  0.65488029  0.02526229
   0.44046889  0.36241522  0.13018978
   0.33136580  0.48656780  0.13261099
   0.56382160  0.54179033  0.02707676
   0.69073052  0.65288171  0.03163684
   0.68904125  0.38053940  0.14574059
   0.55427126  0.48576875  0.13313332
   0.81491788  0.53824599  0.03324111
   0.94003541  0.65169588  0.03325961
   0.94123707  0.38012682  0.14513978
   0.81478297  0.49161630  0.14096605
   0.06486406  0.87319345  0.04050530
   0.18888926  0.98619876  0.04115224
   0.19127122  0.69788642  0.13740773
   0.06582616  0.81029840  0.14468147
   0.31475965  0.87466120  0.03969312
   0.44060266  0.98628886  0.04148061
   0.43622553  0.70289674  0.13466309
   0.31318461  0.81439772  0.14411830
   0.56492928  0.87314122  0.04110321
   0.69060442  0.98514529  0.04177259
   0.68945506  0.69795375  0.13951144
   0.56482586  0.81097644  0.14611255
   0.81581477  0.87328953  0.04024397
   0.94063685  0.98658651  0.04301485
   0.93983670  0.69932245  0.14079367
   0.81453511  0.81134732  0.14452027
   0.43304686  0.56918366  0.20645875
   0.33297409  0.61423378  0.26827249
   0.46662906  0.58649993  0.31341740
   0.49200213  0.49113318  0.28555963
   0.26482346  0.65068370  0.29703334
Direct configuration=    13
   0.06770378  0.20894941  0.04417828
   0.19388636  0.32053405  0.04313168
   0.19099040  0.03903017  0.14777914
   0.06636128  0.15270848  0.14986489
   0.31096287  0.19933560  0.03920877
   0.44153443  0.30413425  0.02626813
   0.44050650  0.03907262  0.14766371
   0.31604628  0.15222343  0.14692783
   0.57095151  0.19750782  0.03807685
   0.68943813  0.31759495  0.04059962
   0.69019376  0.03932509  0.14800009
   0.56497701  0.15248696  0.14629357
   0.81539716  0.20630570  0.04309619
   0.94105908  0.31913794  0.04092953
   0.94070932  0.03997892  0.14940009
   0.81509157  0.15288878  0.14926227
   0.06579648  0.53866657  0.03233642
   0.19023966  0.65321494  0.02960130
   0.19513209  0.38545758  0.14853031
   0.06617752  0.49369024  0.14038174
   0.31713145  0.54211861  0.02635090
   0.44011294  0.65489818  0.02520160
   0.44048324  0.36235674  0.13012960
   0.33156657  0.48636634  0.13236533
   0.56381532  0.54178913  0.02709855
   0.69075556  0.65287111  0.03160870
   0.68915018  0.38053806  0.14571224
   0.55413784  0.48594050  0.13311879
   0.81493686  0.53822371  0.03321327
   0.94004753  0.65167960  0.03323706
   0.94126320  0.38011757  0.14513118
   0.81480575  0.49156615  0.14092984
   0.06490503  0.87318348  0.04051232
   0.18886038  0.98621631  0.04115387
   0.19132593  0.69785433  0.13734179
   0.06584060  0.81024262  0.14467405
   0.31473066  0.87469144  0.03972302
   0.44062696  0.98625181  0.04150987
   0.43604657  0.70302467  0.13445651
   0.31319928  0.81448895  0.14407213
   0.56495956  0.87311851  0.04112407
   0.69064328  0.98513795  0.04178571
   0.68948090  0.69790639  0.13947613
   0.56481442  0.81094322  0.14610397
   0.81582380  0.87327602  0.04024238
   0.94067146  0.98656909  0.04303401
   0.93985667  0.69928632  0.14077084
   0.81458342  0.81132015  0.14451062
   0.43274409  0.56900058  0.20653621
   0.33242451  0.61419633  0.26769759
   0.46687090  0.58626143  0.31408598
   0.49031254  0.49199630  0.28617945
   0.26523350  0.65047308  0.29719488
Direct configuration=    14
   0.06779790  0.20897388  0.04421734
   0.19396530  0.32056300  0.04316686
   0.19104554  0.03896392  0.14780516
   0.06642403  0.15264250  0.14991075
   0.31102064  0.19929966  0.03926144
   0.44171222  0.30386604  0.02622965
   0.44052136  0.03904205  0.14769819
   0.31607591  0.15217691  0.14698127
   0.57107869  0.19730340  0.03809177
   0.68944024  0.31753374  0.04059575
   0.69024485  0.03927722  0.14803420
   0.56501303  0.15241058  0.14630386
   0.81540065  0.20623398  0.04309972
   0.94108741  0.31905994  0.04092051
   0.94075896  0.03995333  0.14943970
   0.81513800  0.15285917  0.14928249
   0.06582682  0.53861273  0.03223881
   0.19028476  0.65315281  0.02950538
   0.19535483  0.38558854  0.14854353
   0.06621595  0.49368686  0.14029623
   0.31721688  0.54212368  0.02616119
   0.44014756  0.65494303  0.02500121
   0.44061465  0.36225526  0.13004709
   0.33172346  0.48595272  0.13200668
   0.56380876  0.54182768  0.02710099
   0.69080231  0.65284377  0.03153825
   0.68920181  0.38061338  0.14568627
   0.55403497  0.48604573  0.13312782
   0.81498268  0.53817266  0.03314210
   0.94007306  0.65164590  0.03318012
   0.94132567  0.38008295  0.14511108
   0.81488852  0.49150577  0.14085238
   0.06496424  0.87316821  0.04052529
   0.18882164  0.98625070  0.04115608
   0.19143565  0.69781398  0.13724291
   0.06589616  0.81011218  0.14465692
   0.31468964  0.87478087  0.03974088
   0.44067904  0.98617357  0.04155088
   0.43582579  0.70314472  0.13411952
   0.31312856  0.81467605  0.14401342
   0.56503722  0.87309373  0.04116182
   0.69070356  0.98511181  0.04180201
   0.68952666  0.69782537  0.13941149
   0.56478227  0.81084493  0.14607926
   0.81585757  0.87325351  0.04023653
   0.94073408  0.98651937  0.04306213
   0.93990226  0.69919338  0.14072562
   0.81466002  0.81124824  0.14449326
   0.43274630  0.56874374  0.20662282
   0.33120087  0.61433354  0.26709974
   0.46645577  0.58667124  0.31540078
   0.48723612  0.49274213  0.28720431
   0.26585246  0.65006445  0.29733509
Direct configuration=    15
   0.06785467  0.20898864  0.04424091
   0.19401290  0.32058047  0.04318808
   0.19107880  0.03892396  0.14782085
   0.06646187  0.15260271  0.14993842
   0.31105548  0.19927798  0.03929321
   0.44181945  0.30370428  0.02620644
   0.44053032  0.03902362  0.14771898
   0.31609379  0.15214885  0.14701350
   0.57115539  0.19718011  0.03810076
   0.68944151  0.31749682  0.04059342
   0.69027566  0.03924834  0.14805478
   0.56503476  0.15236451  0.14631006
   0.81540276  0.20619073  0.04310186
   0.94110449  0.31901290  0.04091507
   0.94078890  0.03993790  0.14946358
   0.81516601  0.15284131  0.14929469
   0.06584512  0.53858026  0.03217994
   0.19031196  0.65311534  0.02944753
   0.19548917  0.38566753  0.14855151
   0.06623913  0.49368482  0.14024466
   0.31726840  0.54212675  0.02604677
   0.44016844  0.65497009  0.02488035
   0.44069391  0.36219406  0.12999732
   0.33181808  0.48570325  0.13179037
   0.56380480  0.54185093  0.02710247
   0.69083051  0.65282728  0.03149576
   0.68923295  0.38065880  0.14567060
   0.55397292  0.48610920  0.13313326
   0.81501031  0.53814187  0.03309918
   0.94008846  0.65162557  0.03314578
   0.94136335  0.38006208  0.14509896