       N       E                     dE             d eps       ncg     rms          rms(c)
RMM:   1     0.419170297983E+04    0.41917E+04   -0.74751E+04  9216   0.841E+02
RMM:   2     0.150450491698E+04   -0.26872E+04   -0.31973E+04  9216   0.216E+02
RMM:   3     0.660207829620E+03   -0.84430E+03   -0.14926E+04  9216   0.172E+02
RMM:   4    -0.105044857139E+03   -0.76525E+03   -0.75908E+03  9216   0.151E+02
RMM:   5    -0.477365587428E+03   -0.37232E+03   -0.32025E+03  9216   0.105E+02
RMM:   6    -0.628555585664E+03   -0.15119E+03   -0.12433E+03  9216   0.796E+01
RMM:   7    -0.671172741183E+03   -0.42617E+02   -0.36675E+02  9216   0.467E+01
RMM:   8    -0.690555121089E+03   -0.19382E+02   -0.13220E+02  9216   0.379E+01
RMM:   9    -0.698000066549E+03   -0.74449E+01   -0.61946E+01  9216   0.192E+01
RMM:  10    -0.701102197626E+03   -0.31021E+01   -0.22952E+01  9216   0.173E+01
RMM:  11    -0.702892941648E+03   -0.17907E+01   -0.15218E+01  9216   0.770E+00
RMM:  12    -0.703510540691E+03   -0.61760E+00   -0.46730E+00  9216   0.731E+00
RMM:  13    -0.703881419084E+03   -0.37088E+00   -0.31820E+00  9216   0.302E+00
RMM:  14    -0.704019419736E+03   -0.13800E+00   -0.10944E+00  9216   0.301E+00
RMM:  15    -0.704188938912E+03   -0.16952E+00   -0.15897E+00 25096   0.127E+00
RMM:  16    -0.704200696509E+03   -0.11758E-01   -0.77934E-02 24073   0.260E-01
RMM:  17    -0.704202061847E+03   -0.13653E-02   -0.10438E-02 22925   0.997E-02
RMM:  18    -0.704202288514E+03   -0.22667E-03   -0.20931E-03 19425   0.456E-02
RMM:  19    -0.704202335166E+03   -0.46652E-04   -0.42747E-04 15615   0.218E-02
RMM:  20    -0.704202345280E+03   -0.10113E-04   -0.95298E-05 13680   0.127E-02    0.572E+01
RMM:  21    -0.707667742993E+03   -0.34654E+01   -0.21499E+02 32624   0.376E+01    0.996E+01
RMM:  22    -0.689660597410E+03    0.18007E+02   -0.40722E+01 32608   0.117E+01    0.669E+01
RMM:  23    -0.658273298104E+03    0.31387E+02   -0.46006E+01 32608   0.107E+01    0.244E+01
RMM:  24    -0.650683700342E+03    0.75896E+01   -0.11331E+01 32620   0.585E+00    0.160E+01
RMM:  25    -0.648669595159E+03    0.20141E+01   -0.69148E+00 32652   0.440E+00    0.907E+00
RMM:  26    -0.648737593796E+03   -0.67999E-01   -0.48286E-01 32608   0.124E+00    0.613E+00
RMM:  27    -0.648801188538E+03   -0.63595E-01   -0.12684E-01 32612   0.786E-01    0.383E+00
RMM:  28    -0.648681816965E+03    0.11937E+00   -0.20990E-01 32604   0.775E-01    0.304E+00
RMM:  29    -0.648685997301E+03   -0.41803E-02   -0.43737E-02 32610   0.403E-01    0.997E-01
RMM:  30    -0.648686378328E+03   -0.38103E-03   -0.10877E-03 21505   0.747E-02    0.810E-01
RMM:  31    -0.648686627971E+03   -0.24964E-03   -0.17338E-03 23812   0.822E-02    0.353E-01
RMM:  32    -0.648686478191E+03    0.14978E-03   -0.32679E-04 20052   0.459E-02    0.196E-01
RMM:  33    -0.648686444055E+03    0.34137E-04   -0.14789E-04 18124   0.271E-02    0.122E-01
RMM:  34    -0.648686473561E+03   -0.29506E-04   -0.47172E-05 14010   0.155E-02    0.121E-01
RMM:  35    -0.648686495597E+03   -0.22036E-04   -0.31939E-05 12660   0.147E-02    0.178E-02
RMM:  36    -0.648686497170E+03   -0.15737E-05   -0.67273E-06 11372   0.728E-03
   1 F= -.65125053E+03 E0= -.65124306E+03  d E =-.651251E+03  mag=    -0.6722
       N       E                     dE             d eps       ncg     rms          rms(c)
RMM:   1    -0.648746178682E+03   -0.59683E-01   -0.11178E+01 18550   0.810E+00    0.162E+00
RMM:   2    -0.648831747669E+03   -0.85569E-01   -0.71852E-01 20695   0.263E+00    0.320E+00
RMM:   3    -0.648817023389E+03    0.14724E-01   -0.15431E-01 20109   0.984E-01    0.689E-01
RMM:   4    -0.648817272134E+03   -0.24874E-03   -0.23170E-02 20846   0.350E-01    0.629E-01
RMM:   5    -0.648815275678E+03    0.19965E-02   -0.79617E-03 19230   0.193E-01    0.295E-01
RMM:   6    -0.648815647784E+03   -0.37211E-03   -0.36801E-03 19582   0.123E-01    0.201E-01
RMM:   7    -0.648815760690E+03   -0.11291E-03   -0.69245E-04 22680   0.604E-02    0.862E-02
RMM:   8    -0.648815732819E+03    0.27871E-04   -0.20039E-04 18462   0.279E-02    0.578E-02
RMM:   9    -0.648815741585E+03   -0.87651E-05   -0.77938E-05 16956   0.180E-02
   2 F= -.65138037E+03 E0= -.65137316E+03  d E =-.129835E+00  mag=    -0.5957
       N       E                     dE             d eps       ncg     rms          rms(c)
RMM:   1    -0.648816067088E+03   -0.33427E-03   -0.11945E+00 18556   0.266E+00    0.504E-01
RMM:   2    -0.648824056193E+03   -0.79891E-02   -0.72757E-02 20602   0.861E-01    0.705E-01
RMM:   3    -0.648823844959E+03    0.21123E-03   -0.16477E-02 19945   0.324E-01    0.231E-01
RMM:   4    -0.648824020078E+03   -0.17512E-03   -0.27761E-03 20926   0.121E-01    0.194E-01
RMM:   5    -0.648823888587E+03    0.13149E-03   -0.92476E-04 19301   0.665E-02    0.890E-02
RMM:   6    -0.648823951431E+03   -0.62844E-04   -0.33493E-04 19292   0.373E-02    0.101E-01
RMM:   7    -0.648823964556E+03   -0.13125E-04   -0.85098E-05 15991   0.212E-02    0.337E-02
RMM:   8    -0.648823960321E+03    0.42344E-05   -0.30666E-05 12561   0.134E-02
   3 F= -.65138877E+03 E0= -.65138144E+03  d E =-.138241E+00  mag=    -0.5807
       N       E                     dE             d eps       ncg     rms          rms(c)
RMM:   1    -0.648849496415E+03   -0.25532E-01   -0.75512E+00 18554   0.683E+00    0.189E+00
RMM:   2    -0.648926964042E+03   -0.77468E-01   -0.50202E-01 20238   0.208E+00    0.468E+00
RMM:   3    -0.648889339478E+03    0.37625E-01   -0.10231E-01 20494   0.906E-01    0.718E-01
RMM:   4    -0.648891730177E+03   -0.23907E-02   -0.16381E-02 21679   0.293E-01    0.817E-01
RMM:   5    -0.648890756074E+03    0.97410E-03   -0.36204E-03 20047   0.122E-01    0.766E-01
RMM:   6    -0.648890084942E+03    0.67113E-03   -0.33545E-03 19518   0.125E-01    0.508E-01
RMM:   7    -0.648889982683E+03    0.10226E-03   -0.67187E-04 21121   0.627E-02    0.296E-01
RMM:   8    -0.648889910752E+03    0.71931E-04   -0.40279E-04 19162   0.373E-02    0.110E-01
RMM:   9    -0.648889924650E+03   -0.13898E-04   -0.11110E-04 17803   0.250E-02    0.232E-02
RMM:  10    -0.648889943086E+03   -0.18436E-04   -0.37204E-05 13513   0.139E-02    0.166E-02
RMM:  11    -0.648889945565E+03   -0.24791E-05   -0.74657E-06 11443   0.796E-03
   4 F= -.65145532E+03 E0= -.65144716E+03  d E =-.665489E-01  mag=    -0.5673
       N       E                     dE             d eps       ncg     rms          rms(c)
RMM:   1    -0.648889341976E+03    0.60111E-03   -0.11142E+00 18547   0.263E+00    0.894E-01
RMM:   2    -0.648901427889E+03   -0.12086E-01   -0.77068E-02 20452   0.811E-01    0.185E+00
RMM:   3    -0.648894984009E+03    0.64439E-02   -0.15810E-02 20167   0.362E-01    0.491E-01
RMM:   4    -0.648895488233E+03   -0.50422E-03   -0.26382E-03 21437   0.117E-01    0.486E-01
RMM:   5    -0.648895117695E+03    0.37054E-03   -0.67537E-04 20009   0.526E-02    0.222E-01
RMM:   6    -0.648895155061E+03   -0.37366E-04   -0.43172E-04 19326   0.445E-02    0.229E-01
RMM:   7    -0.648895105162E+03    0.49899E-04   -0.12927E-04 17571   0.280E-02    0.515E-02
RMM:   8    -0.648895124057E+03   -0.18895E-04   -0.46527E-05 13591   0.146E-02    0.345E-02
RMM:   9    -0.648895127794E+03   -0.37369E-05   -0.13526E-05 11677   0.910E-03
   5 F= -.65146071E+03 E0= -.65145247E+03  d E =-.719342E-01  mag=    -0.5538
       N       E                     dE             d eps       ncg     rms          rms(c)
RMM:   1    -0.648904963722E+03   -0.98397E-02   -0.75310E+00 18544   0.660E+00    0.150E+00
RMM:   2    -0.648961418106E+03   -0.56454E-01   -0.46448E-01 20008   0.188E+00    0.368E+00
RMM:   3    -0.648945290993E+03    0.16127E-01   -0.85830E-02 21082   0.748E-01    0.708E-01
RMM:   4    -0.648946320253E+03   -0.10293E-02   -0.12957E-02 20665   0.275E-01    0.704E-01
RMM:   5    -0.648946636730E+03   -0.31648E-03   -0.35447E-03 19173   0.122E-01    0.869E-01
RMM:   6    -0.648946689877E+03   -0.53147E-04   -0.30286E-03 19051   0.119E-01    0.523E-01
RMM:   7    -0.648946745143E+03   -0.55266E-04   -0.86043E-04 19848   0.661E-02    0.354E-01
RMM:   8    -0.648946826358E+03   -0.81215E-04   -0.55268E-04 19484   0.443E-02    0.138E-01
RMM:   9    -0.648946876554E+03   -0.50196E-04   -0.16330E-04 17600   0.323E-02    0.495E-02
RMM:  10    -0.648946901772E+03   -0.25218E-04   -0.44667E-05 13952   0.164E-02    0.150E-02
RMM:  11    -0.648946912310E+03   -0.10538E-04   -0.12661E-05 11828   0.869E-03    0.594E-03
RMM:  12    -0.648946914404E+03   -0.20939E-05   -0.33361E-06 11348   0.495E-03
   6 F= -.65151295E+03 E0= -.65150479E+03  d E =-.522415E-01  mag=    -0.5252
       N       E                     dE             d eps       ncg     rms          rms(c)
RMM:   1    -0.648935791600E+03    0.11121E-01   -0.40693E+00 18544   0.486E+00    0.102E+00
RMM:   2    -0.648963343333E+03   -0.27552E-01   -0.24067E-01 19953   0.137E+00    0.224E+00
RMM:   3    -0.648957456650E+03    0.58867E-02   -0.46110E-02 21166   0.548E-01    0.519E-01
RMM:   4    -0.648958020387E+03   -0.56374E-03   -0.69651E-03 20925   0.197E-01    0.516E-01
RMM:   5    -0.648958193295E+03   -0.17291E-03   -0.16998E-03 19161   0.847E-02    0.598E-01
RMM:   6    -0.648958233237E+03   -0.39942E-04   -0.15610E-03 18979   0.844E-02    0.397E-01
RMM:   7    -0.648958274113E+03   -0.40877E-04   -0.51685E-04 19187   0.512E-02    0.216E-01
RMM:   8    -0.648958369777E+03   -0.95664E-04   -0.25217E-04 19222   0.309E-02    0.901E-02
RMM:   9    -0.648958388614E+03   -0.18837E-04   -0.70657E-05 15337   0.220E-02    0.309E-02
RMM:  10    -0.648958406690E+03   -0.18076E-04   -0.20284E-05 12292   0.116E-02    0.130E-02
RMM:  11    -0.648958411117E+03   -0.44269E-05   -0.58675E-06 11469   0.648E-03
   7 F= -.65152475E+03 E0= -.65151682E+03  d E =-.640456E-01  mag=    -0.4996
       N       E                     dE             d eps       ncg     rms          rms(c)
RMM:   1    -0.648946086345E+03    0.12320E-01   -0.76888E+00 18496   0.635E+00    0.114E+00
RMM:   2    -0.648984819602E+03   -0.38733E-01   -0.41235E-01 19103   0.182E+00    0.193E+00
RMM:   3    -0.648987262368E+03   -0.24428E-02   -0.10373E-01 21726   0.738E-01    0.772E-01
RMM:   4    -0.648986653644E+03    0.60872E-03   -0.95585E-03 20322   0.243E-01    0.578E-01
RMM:   5    -0.648986637822E+03    0.15822E-04   -0.42233E-03 18537   0.141E-01    0.494E-01
RMM:   6    -0.648987512960E+03   -0.87514E-03   -0.39153E-03 18770   0.124E-01    0.334E-01
RMM:   7    -0.648987624710E+03   -0.11175E-03   -0.77347E-04 22042   0.668E-02    0.641E-02
RMM:   8    -0.648987698632E+03   -0.73923E-04   -0.18995E-04 17969   0.282E-02    0.363E-02
RMM:   9    -0.648987744010E+03   -0.45378E-04   -0.93220E-05 17301   0.194E-02    0.429E-02
RMM:  10    -0.648987750481E+03   -0.64706E-05   -0.16850E-05 11898   0.946E-03
   8 F= -.65155453E+03 E0= -.65154695E+03  d E =-.297805E-01  mag=    -0.4728
       N       E                     dE             d eps       ncg     rms          rms(c)
RMM:   1    -0.648987753158E+03   -0.91484E-05   -0.38941E-04 18132   0.455E-02    0.129E-02
RMM:   2    -0.648987754472E+03   -0.13136E-05   -0.24563E-05 12298   0.147E-02    0.372E-02
RMM:   3    -0.648987751338E+03    0.31342E-05   -0.64322E-06 11557   0.811E-03    0.523E-03
RMM:   4    -0.648987753652E+03   -0.23148E-05   -0.19688E-06 10838   0.403E-03    0.427E-03
RMM:   5    -0.648987754480E+03   -0.82773E-06   -0.76163E-07  8760   0.267E-03    0.531E-03
RMM:   6    -0.648987756617E+03   -0.21368E-05   -0.66998E-07  8490   0.240E-03
   9 F= -.65155454E+03 E0= -.65154696E+03  d E =-.297909E-01  mag=    -0.4728
       N       E                     dE             d eps       ncg     rms          rms(c)
RMM:   1    -0.648992585537E+03   -0.48311E-02   -0.21742E+00 18432   0.333E+00    0.438E-01
RMM:   2    -0.649002104433E+03   -0.95189E-02   -0.11285E-01 18845   0.947E-01    0.445E-01
RMM:   3    -0.649004540883E+03   -0.24365E-02   -0.30466E-02 22060   0.421E-01    0.502E-01
RMM:   4    -0.649004617001E+03   -0.76118E-04   -0.53792E-03 20383   0.152E-01    0.243E-01
RMM:   5    -0.649004615657E+03    0.13441E-05   -0.10017E-03 18946   0.645E-02    0.196E-01
RMM:   6    -0.649004840786E+03   -0.22513E-03   -0.13106E-03 18896   0.699E-02    0.133E-01
RMM:   7    -0.649005007584E+03   -0.16680E-03   -0.24514E-04 19819   0.361E-02    0.386E-02
RMM:   8    -0.649005053719E+03   -0.46135E-04   -0.47147E-05 13339   0.168E-02    0.669E-02
RMM:   9    -0.649005062592E+03   -0.88730E-05   -0.13560E-05 11742   0.962E-03
  10 F= -.65157189E+03 E0= -.65156445E+03  d E =-.173438E-01  mag=    -0.4771
       N       E                     dE             d eps       ncg     rms          rms(c)
RMM:   1    -0.649003192599E+03    0.18611E-02   -0.86487E-01 18432   0.210E+00    0.265E-01
RMM:   2    -0.649006966115E+03   -0.37735E-02   -0.44540E-02 18833   0.588E-01    0.330E-01
RMM:   3    -0.649007789683E+03   -0.82357E-03   -0.11550E-02 22150   0.256E-01    0.189E-01
RMM:   4    -0.649007869612E+03   -0.79928E-04   -0.19329E-03 19696   0.915E-02    0.150E-01
RMM:   5    -0.649007925744E+03   -0.56132E-04   -0.84137E-04 18675   0.589E-02    0.117E-01
RMM:   6    -0.649008052110E+03   -0.12637E-03   -0.17223E-04 19334   0.310E-02    0.886E-02
RMM:   7    -0.649008152171E+03   -0.10006E-03   -0.77955E-05 16039   0.189E-02    0.440E-02
RMM:   8    -0.649008159329E+03   -0.71580E-05   -0.17450E-05 11918   0.104E-02
  11 F= -.65157500E+03 E0= -.65156765E+03  d E =-.204566E-01  mag=    -0.4807
       N       E                     dE             d eps       ncg     rms          rms(c)
RMM:   1    -0.649007689803E+03    0.46237E-03   -0.23202E+00 18432   0.353E+00    0.461E-01
RMM:   2    -0.649019040051E+03   -0.11350E-01   -0.11566E-01 18768   0.101E+00    0.121E+00
RMM:   3    -0.649019746936E+03   -0.70689E-03   -0.31834E-02 21612   0.439E-01    0.565E-01
RMM:   4    -0.649019736700E+03    0.10236E-04   -0.48523E-03 19851   0.158E-01    0.253E-01
RMM:   5    -0.649019945701E+03   -0.20900E-03   -0.14514E-03 19072   0.900E-02    0.346E-01
RMM:   6    -0.649020097555E+03   -0.15185E-03   -0.58884E-04 20364   0.474E-02    0.223E-01
RMM:   7    -0.649020234683E+03   -0.13713E-03   -0.32355E-04 18870   0.391E-02    0.694E-02
RMM:   8    -0.649020284585E+03   -0.49902E-04   -0.22503E-04 19109   0.311E-02    0.933E-02
RMM:   9    -0.649020279833E+03    0.47522E-05   -0.42714E-05 13784   0.153E-02
  12 F= -.65158702E+03 E0= -.65157974E+03  d E =-.120241E-01  mag=    -0.4980
       N       E                     dE             d eps       ncg     rms          rms(c)
RMM:   1    -0.649020253218E+03    0.31366E-04   -0.35813E-02 18441   0.437E-01    0.593E-02
RMM:   2    -0.649020399341E+03   -0.14612E-03   -0.17429E-03 18788   0.121E-01    0.136E-01
RMM:   3    -0.649020405641E+03   -0.62996E-05   -0.45046E-04 20413   0.517E-02    0.693E-02
RMM:   4    -0.649020415429E+03   -0.97881E-05   -0.65957E-05 13558   0.198E-02    0.318E-02
RMM:   5    -0.649020432041E+03   -0.16612E-04   -0.21486E-05 11991   0.110E-02    0.465E-02
RMM:   6    -0.649020441643E+03   -0.96011E-05   -0.87867E-06 11693   0.673E-03
  13 F= -.65158717E+03 E0= -.65157989E+03  d E =-.121717E-01  mag=    -0.5010
       N       E                     dE             d eps       ncg     rms          rms(c)
RMM:   1    -0.649020379753E+03    0.52289E-04   -0.19734E+00 18433   0.328E+00    0.423E-01
RMM:   2    -0.649028404900E+03   -0.80251E-02   -0.93729E-02 18707   0.872E-01    0.438E-01
RMM:   3    -0.649030316988E+03   -0.19121E-02   -0.23181E-02 21555   0.365E-01    0.345E-01
RMM:   4    -0.649030510117E+03   -0.19313E-03   -0.37393E-03 20219   0.136E-01    0.198E-01
RMM:   5    -0.649030578589E+03   -0.68472E-04   -0.10429E-03 18543   0.707E-02    0.269E-01
RMM:   6    -0.649030630993E+03   -0.52404E-04   -0.39958E-04 20701   0.437E-02    0.120E-01
RMM:   7    -0.649030748512E+03   -0.11752E-03   -0.12617E-04 16947   0.246E-02    0.433E-02
RMM:   8    -0.649030802030E+03   -0.53518E-04   -0.60365E-05 13865   0.177E-02    0.379E-02
RMM:   9    -0.649030807230E+03   -0.52001E-05   -0.13177E-05 11743   0.899E-03
  14 F= -.65159751E+03 E0= -.65159026E+03  d E =-.103423E-01  mag=    -0.4986
       N       E                     dE             d eps       ncg     rms          rms(c)
RMM:   1    -0.649030238034E+03    0.56400E-03   -0.25684E-01 18435   0.118E+00    0.153E-01
RMM:   2    -0.649031161496E+03   -0.92346E-03   -0.12104E-02 18721   0.310E-01    0.125E-01
RMM:   3    -0.649031464456E+03   -0.30296E-03   -0.26766E-03 21212   0.127E-01    0.240E-01
RMM:   4    -0.649031447780E+03    0.16676E-04   -0.59136E-04 19827   0.538E-02    0.746E-02
RMM:   5    -0.649031525644E+03   -0.77864E-04   -0.12092E-04 17252   0.239E-02    0.889E-02
RMM:   6    -0.649031560930E+03   -0.35287E-04   -0.81532E-05 16775   0.195E-02    0.291E-02
RMM:   7    -0.649031581801E+03   -0.20871E-04   -0.29352E-05 12422   0.117E-02    0.143E-02
RMM:   8    -0.649031590608E+03   -0.88073E-05   -0.61699E-06 11497   0.696E-03
  15 F= -.65159829E+03 E0= -.65159105E+03  d E =-.111172E-01  mag=    -0.4985
       N       E                     dE             d eps       ncg     rms          rms(c)
RMM:   1    -0.649027275666E+03    0.43061E-02   -0.18344E+00 18438   0.316E+00    0.452E-01
RMM:   2    -0.649034973526E+03   -0.76979E-02   -0.87443E-02 18833   0.825E-01    0.410E-01
RMM:   3    -0.649036813773E+03   -0.18402E-02   -0.21627E-02 21525   0.331E-01    0.492E-01
RMM:   4    -0.649036533678E+03    0.28009E-03   -0.24349E-03 20156   0.119E-01    0.211E-01
RMM:   5    -0.649036474995E+03    0.58683E-04   -0.97209E-04 18600   0.661E-02    0.158E-01
RMM:   6    -0.649036625983E+03   -0.15099E-03   -0.61466E-04 18661   0.518E-02    0.853E-02
RMM:   7    -0.649036777070E+03   -0.15109E-03   -0.23078E-04 20348   0.328E-02    0.461E-02
RMM:   8    -0.649036791374E+03   -0.14305E-04   -0.45888E-05 14234   0.165E-02    0.264E-02
RMM:   9    -0.649036804645E+03   -0.13271E-04   -0.15889E-05 11688   0.969E-03    0.938E-03
RMM:  10    -0.649036809646E+03   -0.50013E-05   -0.48259E-06 11380   0.696E-03
  16 F= -.65160344E+03 E0= -.65159623E+03  d E =-.514935E-02  mag=    -0.4899
       N       E                     dE             d eps       ncg     rms          rms(c)
RMM:   1    -0.649036768079E+03    0.36567E-04   -0.20640E-02 18433   0.335E-01    0.431E-02
RMM:   2    -0.649036826985E+03   -0.58907E-04   -0.96695E-04 18844   0.874E-02    0.392E-02
RMM:   3    -0.649036845227E+03   -0.18241E-04   -0.23520E-04 19611   0.365E-02    0.513E-02
RMM:   4    -0.649036847485E+03   -0.22587E-05   -0.32259E-05 12520   0.152E-02    0.216E-02
RMM:   5    -0.649036856660E+03   -0.91746E-05   -0.10004E-05 11471   0.753E-03    0.233E-02
RMM:   6    -0.649036864408E+03   -0.77479E-05   -0.87912E-06 11095   0.680E-03
  17 F= -.65160350E+03 E0= -.65159629E+03  d E =-.521158E-02  mag=    -0.4903
       N       E                     dE             d eps       ncg     rms          rms(c)
RMM:   1    -0.649035442671E+03    0.14140E-02   -0.81124E-01 18456   0.204E+00    0.231E-01
RMM:   2    -0.649038544651E+03   -0.31020E-02   -0.38177E-02 18835   0.529E-01    0.181E-01
RMM:   3    -0.649039258315E+03   -0.71366E-03   -0.80721E-03 21230   0.203E-01    0.221E-01
RMM:   4    -0.649039252725E+03    0.55900E-05   -0.10973E-03 19953   0.764E-02    0.129E-01
RMM:   5    -0.649039280161E+03   -0.27435E-04   -0.39740E-04 18577   0.424E-02    0.933E-02
RMM:   6    -0.649039490311E+03   -0.21015E-03   -0.37533E-04 18558   0.383E-02    0.457E-02
RMM:   7    -0.649039519979E+03   -0.29669E-04   -0.64370E-05 14496   0.195E-02    0.293E-02
RMM:   8    -0.649039530409E+03   -0.10430E-04   -0.23003E-05 11821   0.111E-02    0.975E-03
RMM:   9    -0.649039538706E+03   -0.82972E-05   -0.57667E-06 11396   0.766E-03
  18 F= -.65160612E+03 E0= -.65159895E+03  d E =-.261453E-02  mag=    -0.4891
       N       E                     dE             d eps       ncg     rms          rms(c)
RMM:   1    -0.649039529556E+03    0.85311E-06   -0.36254E-03 18432   0.137E-01    0.162E-02
RMM:   2    -0.649039535347E+03   -0.57908E-05   -0.16662E-04 18184   0.356E-02    0.229E-02
RMM:   3    -0.649039535921E+03   -0.57454E-06   -0.35661E-05 13016   0.153E-02    0.137E-02
RMM:   4    -0.649039539030E+03   -0.31092E-05   -0.63145E-06 11334   0.786E-03    0.967E-03
RMM:   5    -0.649039543966E+03   -0.49354E-05   -0.38661E-06 10931   0.460E-03    0.615E-03
RMM:   6    -0.649039545723E+03   -0.17573E-05   -0.73549E-07  8412   0.259E-03
  19 F= -.65160613E+03 E0= -.65159895E+03  d E =-.262585E-02  mag=    -0.4890
       N       E                     dE             d eps       ncg     rms          rms(c)
RMM:   1    -0.649039400826E+03    0.14314E-03   -0.45377E-01 18550   0.151E+00    0.162E-01
RMM:   2    -0.649040877887E+03   -0.14771E-02   -0.20149E-02 18774   0.393E-01    0.121E-01
RMM:   3    -0.649041235752E+03   -0.35787E-03   -0.35293E-03 20148   0.149E-01    0.247E-01
RMM:   4    -0.649041274441E+03   -0.38689E-04   -0.92049E-04 21201   0.651E-02    0.125E-01
RMM:   5    -0.649041398966E+03   -0.12453E-03   -0.20162E-04 17971   0.321E-02    0.573E-02
RMM:   6    -0.649041497814E+03   -0.98847E-04   -0.13592E-04 17830   0.237E-02    0.609E-02
RMM:   7    -0.649041502307E+03   -0.44929E-05   -0.19135E-05 11935   0.110E-02
  20 F= -.65160808E+03 E0= -.65160094E+03  d E =-.195082E-02  mag=    -0.4948
       N       E                     dE             d eps       ncg     rms          rms(c)
RMM:   1    -0.649041403637E+03    0.94177E-04   -0.49273E-02 18550   0.498E-01    0.540E-02
RMM:   2    -0.649041544676E+03   -0.14104E-03   -0.21864E-03 18794   0.129E-01    0.450E-02
RMM:   3    -0.649041587906E+03   -0.43231E-04   -0.39460E-04 19544   0.471E-02    0.419E-02
RMM:   4    -0.649041608942E+03   -0.21036E-04   -0.67370E-05 14135   0.194E-02    0.435E-02
RMM:   5    -0.649041625213E+03   -0.16271E-04   -0.22543E-05 11943   0.121E-02    0.216E-02
RMM:   6    -0.649041646758E+03   -0.21545E-04   -0.14770E-05 11854   0.940E-03    0.942E-03
RMM:   7    -0.649041649523E+03   -0.27655E-05   -0.33558E-06 11337   0.596E-03
  21 F= -.65160822E+03 E0= -.65160109E+03  d E =-.209485E-02  mag=    -0.4971
       N       E                     dE             d eps       ncg     rms          rms(c)
RMM:   1    -0.649042256290E+03   -0.60953E-03   -0.22791E-01 18578   0.109E+00    0.107E-01
RMM:   2    -0.649042943407E+03   -0.68712E-03   -0.97622E-03 18678   0.281E-01    0.918E-02
RMM:   3    -0.649043122056E+03   -0.17865E-03   -0.17463E-03 19978   0.107E-01    0.152E-01
RMM:   4    -0.649043160629E+03   -0.38573E-04   -0.38929E-04 20105   0.453E-02    0.767E-02
RMM:   5    -0.649043240218E+03   -0.79589E-04   -0.12417E-04 17895   0.254E-02    0.267E-02
RMM:   6    -0.649043272754E+03   -0.32536E-04   -0.47275E-05 14332   0.147E-02    0.345E-02
RMM:   7    -0.649043277162E+03   -0.44079E-05   -0.71162E-06 11501   0.773E-03
  22 F= -.65160983E+03 E0= -.65160270E+03  d E =-.160637E-02  mag=    -0.4984
       N       E                     dE             d eps       ncg     rms          rms(c)
RMM:   1    -0.649041052875E+03    0.22199E-02   -0.76550E-01 18574   0.200E+00    0.196E-01
RMM:   2    -0.649043566325E+03   -0.25134E-02   -0.32806E-02 18681   0.517E-01    0.164E-01
RMM:   3    -0.649044166984E+03   -0.60066E-03   -0.59679E-03 20322   0.198E-01    0.288E-01
RMM:   4    -0.649044205666E+03   -0.38681E-04   -0.13342E-03 20903   0.824E-02    0.140E-01
RMM:   5    -0.649044367061E+03   -0.16140E-03   -0.36231E-04 18380   0.431E-02    0.522E-02
RMM:   6    -0.649044483683E+03   -0.11662E-03   -0.17813E-04 18125   0.278E-02    0.604E-02
RMM:   7    -0.649044494370E+03   -0.10688E-04   -0.32066E-05 12638   0.137E-02    0.461E-02
RMM:   8    -0.649044502151E+03   -0.77806E-05   -0.12245E-05 11546   0.947E-03
  23 F= -.65161101E+03 E0= -.65160390E+03  d E =-.279264E-02  mag=    -0.5021
       N       E                     dE             d eps       ncg     rms          rms(c)
RMM:   1    -0.649044753547E+03   -0.25918E-03   -0.29507E-01 18580   0.129E+00    0.120E-01
RMM:   2    -0.649045647042E+03   -0.89350E-03   -0.11810E-02 18686   0.321E-01    0.132E-01
RMM:   3    -0.649045852245E+03   -0.20520E-03   -0.23457E-03 20440   0.121E-01    0.109E-01
RMM:   4    -0.649045881672E+03   -0.29427E-04   -0.34762E-04 19630   0.498E-02    0.574E-02
RMM:   5    -0.649045927911E+03   -0.46239E-04   -0.21674E-04 18426   0.327E-02    0.253E-02
RMM:   6    -0.649045947138E+03   -0.19228E-04   -0.48105E-05 13727   0.163E-02    0.164E-02
RMM:   7    -0.649045954269E+03   -0.71301E-05   -0.88520E-06 11447   0.910E-03
  24 F= -.65161244E+03 E0= -.65160531E+03  d E =-.142132E-02  mag=    -0.5011
       N       E                     dE             d eps       ncg     rms          rms(c)
RMM:   1    -0.649045792019E+03    0.15512E-03   -0.10730E-01 18580   0.778E-01    0.778E-02
RMM:   2    -0.649046099493E+03   -0.30747E-03   -0.43152E-03 18693   0.194E-01    0.107E-01
RMM:   3    -0.649046167765E+03   -0.68272E-04   -0.87608E-04 20610   0.737E-02    0.630E-02
RMM:   4    -0.649046182366E+03   -0.14600E-04   -0.12854E-04 18514   0.294E-02    0.354E-02
RMM:   5    -0.649046215066E+03   -0.32701E-04   -0.88216E-05 17945   0.204E-02    0.133E-02
RMM:   6    -0.649046222958E+03   -0.78920E-05   -0.15954E-05 11774   0.101E-02
  25 F= -.65161269E+03 E0= -.65160555E+03  d E =-.167205E-02  mag=    -0.5009
       N       E                     dE             d eps       ncg     rms          rms(c)
RMM:   1    -0.649046104805E+03    0.11026E-03   -0.35461E-01 18588   0.144E+00    0.186E-01
RMM:   2    -0.649047383642E+03   -0.12788E-02   -0.14328E-02 18747   0.358E-01    0.374E-01
RMM:   3    -0.649047406981E+03   -0.23338E-04   -0.31406E-03 21082   0.149E-01    0.130E-01
RMM:   4    -0.649047452823E+03   -0.45842E-04   -0.49226E-04 19642   0.543E-02    0.946E-02
RMM:   5    -0.649047486582E+03   -0.33759E-04   -0.23501E-04 18364   0.336E-02    0.344E-02
RMM:   6    -0.649047509541E+03   -0.22959E-04   -0.53261E-05 14503   0.172E-02    0.442E-02
RMM:   7    -0.649047513748E+03   -0.42078E-05   -0.90676E-06 11550   0.908E-03
  26 F= -.65161396E+03 E0= -.65160680E+03  d E =-.126984E-02  mag=    -0.4953
       N       E                     dE             d eps       ncg     rms          rms(c)
RMM:   1    -0.649047434019E+03    0.75521E-04   -0.50107E-02 18613   0.539E-01    0.675E-02
RMM:   2    -0.649047588651E+03   -0.15463E-03   -0.20226E-03 18745   0.134E-01    0.125E-01
RMM:   3    -0.649047597803E+03   -0.91521E-05   -0.44766E-04 20541   0.551E-02    0.519E-02
RMM:   4    -0.649047614017E+03   -0.16213E-04   -0.66107E-05 15272   0.203E-02    0.359E-02
RMM:   5    -0.649047634282E+03   -0.20266E-04   -0.33785E-05 13542   0.130E-02    0.907E-03
RMM:   6    -0.649047639937E+03   -0.56546E-05   -0.58148E-06 11332   0.668E-03
  27 F= -.65161407E+03 E0= -.65160690E+03  d E =-.138800E-02  mag=    -0.4931
       N       E                     dE             d eps       ncg     rms          rms(c)
RMM:   1    -0.649047750713E+03   -0.11643E-03   -0.11061E-01 18570   0.802E-01    0.914E-02
RMM:   2    -0.649048148722E+03   -0.39801E-03   -0.45414E-03 18774   0.202E-01    0.234E-01
RMM:   3    -0.649048133834E+03    0.14888E-04   -0.10076E-03 21402   0.850E-02    0.509E-02
RMM:   4    -0.649048157178E+03   -0.23344E-04   -0.15073E-04 17881   0.297E-02    0.532E-02
RMM:   5    -0.649048179395E+03   -0.22218E-04   -0.74324E-05 17835   0.191E-02    0.474E-02
RMM:   6    -0.649048187876E+03   -0.84806E-05   -0.19883E-05 11860   0.108E-02
  28 F= -.65161461E+03 E0= -.65160743E+03  d E =-.535913E-03  mag=    -0.4892
       N       E                     dE             d eps       ncg     rms          rms(c)
RMM:   1    -0.649048157601E+03    0.21794E-04   -0.25105E-02 18570   0.383E-01    0.421E-02
RMM:   2    -0.649048233002E+03   -0.75401E-04   -0.10329E-03 18774   0.966E-02    0.104E-01
RMM:   3    -0.649048231139E+03    0.18630E-05   -0.23042E-04 19840   0.405E-02    0.261E-02
RMM:   4    -0.649048244127E+03   -0.12988E-04   -0.35455E-05 12802   0.156E-02    0.277E-02
RMM:   5    -0.649048259920E+03   -0.15793E-04   -0.15678E-05 11490   0.947E-03    0.192E-02
RMM:   6    -0.649048265144E+03   -0.52240E-05   -0.46190E-06 11331   0.599E-03
  29 F= -.65161468E+03 E0= -.65160750E+03  d E =-.607126E-03  mag=    -0.4875
       N       E                     dE             d eps       ncg     rms          rms(c)
RMM:   1    -0.649048327107E+03   -0.67187E-04   -0.95411E-02 18581   0.733E-01    0.754E-02
RMM:   2    -0.649048661856E+03   -0.33475E-03   -0.39995E-03 18793   0.187E-01    0.205E-01
RMM:   3    -0.649048659927E+03    0.19283E-05   -0.83686E-04 21178   0.764E-02    0.617E-02
RMM:   4    -0.649048685629E+03   -0.25701E-04   -0.13090E-04 17508   0.278E-02    0.420E-02
RMM:   5    -0.649048710204E+03   -0.24575E-04   -0.43009E-05 14370   0.161E-02    0.531E-02
RMM:   6    -0.649048724243E+03   -0.14039E-04   -0.16415E-05 11867   0.971E-03    0.113E-02
RMM:   7    -0.649048737474E+03   -0.13231E-04   -0.67618E-06 11517   0.667E-03    0.627E-03
RMM:   8    -0.649048740363E+03   -0.28893E-05   -0.19299E-06 11310   0.414E-03
  30 F= -.65161516E+03 E0= -.65160797E+03  d E =-.474457E-03  mag=    -0.4854
       N       E                     dE             d eps       ncg     rms          rms(c)
RMM:   1    -0.649048546756E+03    0.19072E-03   -0.78400E-02 18583   0.664E-01    0.726E-02
RMM:   2    -0.649048832089E+03   -0.28533E-03   -0.33037E-03 18789   0.171E-01    0.212E-01
RMM:   3    -0.649048811038E+03    0.21051E-04   -0.70101E-04 21000   0.710E-02    0.569E-02
RMM:   4    -0.649048835708E+03   -0.24670E-04   -0.11436E-04 16871   0.257E-02    0.381E-02
RMM:   5    -0.649048857459E+03   -0.21750E-04   -0.36250E-05 13589   0.150E-02    0.488E-02
RMM:   6    -0.649048869492E+03   -0.12033E-04   -0.13757E-05 11847   0.896E-03    0.102E-02
RMM:   7    -0.649048881014E+03   -0.11522E-04   -0.56568E-06 11407   0.611E-03    0.584E-03
RMM:   8    -0.649048883499E+03   -0.24855E-05   -0.15945E-06 11299   0.376E-03
  31 F= -.65161530E+03 E0= -.65160811E+03  d E =-.617377E-03  mag=    -0.4833
       N       E                     dE             d eps       ncg     rms          rms(c)
RMM:   1    -0.649048925659E+03   -0.44645E-04   -0.60394E-02 18588   0.576E-01    0.550E-02
RMM:   2    -0.649049101781E+03   -0.17612E-03   -0.25263E-03 18759   0.145E-01    0.946E-02
RMM:   3    -0.649049129621E+03   -0.27840E-04   -0.51252E-04 20319   0.563E-02    0.424E-02
RMM:   4    -0.649049142649E+03   -0.13028E-04   -0.81843E-05 16216   0.223E-02    0.309E-02
RMM:   5    -0.649049168870E+03   -0.26221E-04   -0.59479E-05 16719   0.164E-02    0.180E-02
RMM:   6    -0.649049178112E+03   -0.92415E-05   -0.94411E-06 11462   0.803E-03
  32 F= -.65161559E+03 E0= -.65160840E+03  d E =-.289006E-03  mag=    -0.4830
       N       E                     dE             d eps       ncg     rms          rms(c)
RMM:   1    -0.649049171014E+03   -0.21442E-05   -0.95672E-03 18571   0.229E-01    0.225E-02
RMM:   2    -0.649049188133E+03   -0.17119E-04   -0.40418E-04 18488   0.578E-02    0.390E-02
RMM:   3    -0.649049191040E+03   -0.29065E-05   -0.80921E-05 16827   0.228E-02    0.174E-02
RMM:   4    -0.649049197292E+03   -0.62526E-05   -0.13581E-05 11808   0.106E-02    0.129E-02
RMM:   5    -0.649049209987E+03   -0.12695E-04   -0.10815E-05 11349   0.715E-03    0.474E-03
RMM:   6    -0.649049213668E+03   -0.36808E-05   -0.19007E-06 11241   0.422E-03
  33 F= -.65161562E+03 E0= -.65160843E+03  d E =-.321670E-03  mag=    -0.4831
       N       E                     dE             d eps       ncg     rms          rms(c)
RMM:   1    -0.649049263346E+03   -0.53359E-04   -0.46196E-02 18596   0.501E-01    0.462E-02
RMM:   2    -0.649049378933E+03   -0.11559E-03   -0.19063E-03 18768   0.125E-01    0.418E-02
RMM:   3    -0.649049415927E+03   -0.36994E-04   -0.36238E-04 19834   0.465E-02    0.497E-02
RMM:   4    -0.649049427111E+03   -0.11184E-04   -0.55053E-05 14579   0.197E-02    0.245E-02
RMM:   5    -0.649049447738E+03   -0.20626E-04   -0.34124E-05 13775   0.127E-02    0.231E-02
RMM:   6    -0.649049454852E+03   -0.71146E-05   -0.66001E-06 11329   0.702E-03
  34 F= -.65161586E+03 E0= -.65160867E+03  d E =-.236602E-03  mag=    -0.4839
       N       E                     dE             d eps       ncg     rms          rms(c)
RMM:   1    -0.649049389165E+03    0.58572E-04   -0.29827E-02 18596   0.403E-01    0.392E-02
RMM:   2    -0.649049459579E+03   -0.70414E-04   -0.12376E-03 18754   0.100E-01    0.463E-02
RMM:   3    -0.649049479936E+03   -0.20357E-04   -0.24103E-04 19118   0.381E-02    0.355E-02
RMM:   4    -0.649049491521E+03   -0.11585E-04   -0.39083E-05 13271   0.167E-02    0.208E-02
RMM:   5    -0.649049513079E+03   -0.21558E-04   -0.24935E-05 12086   0.110E-02    0.193E-02
RMM:   6    -0.649049519092E+03   -0.60135E-05   -0.45893E-06 11320   0.664E-03
  35 F= -.65161592E+03 E0= -.65160874E+03  d E =-.296656E-03  mag=    -0.4842
       N       E                     dE             d eps       ncg     rms          rms(c)
RMM:   1    -0.649049601118E+03   -0.88039E-04   -0.29498E-02 18604   0.402E-01    0.387E-02
RMM:   2    -0.649049668983E+03   -0.67865E-04   -0.11866E-03 18764   0.999E-02    0.514E-02
RMM:   3    -0.649049685389E+03   -0.16407E-04   -0.23614E-04 19390   0.387E-02    0.267E-02
RMM:   4    -0.649049700853E+03   -0.15464E-04   -0.36302E-05 13064   0.161E-02    0.299E-02
RMM:   5    -0.649049717527E+03   -0.16674E-04   -0.13928E-05 11481   0.937E-03    0.244E-02
RMM:   6    -0.649049722386E+03   -0.48592E-05   -0.40244E-06 11315   0.578E-03
  36 F= -.65161612E+03 E0= -.65160894E+03  d E =-.200156E-03  mag=    -0.4852
       N       E                     dE             d eps       ncg     rms          rms(c)
RMM:   1    -0.649049459594E+03    0.25793E-03   -0.98740E-02 18613   0.736E-01    0.702E-02
RMM:   2    -0.649049736776E+03   -0.27718E-03   -0.39576E-03 18749   0.182E-01    0.106E-01
RMM:   3    -0.649049788126E+03   -0.51350E-04   -0.77422E-04 20239   0.701E-02    0.483E-02
RMM:   4    -0.649049817174E+03   -0.29049E-04   -0.12590E-04 18558   0.282E-02    0.456E-02
RMM:   5    -0.649049849994E+03   -0.32820E-04   -0.53403E-05 16326   0.169E-02    0.512E-02
RMM:   6    -0.649049856583E+03   -0.65891E-05   -0.12569E-05 11691   0.944E-03
  37 F= -.65161625E+03 E0= -.65160907E+03  d E =-.329453E-03  mag=    -0.4870
       N       E                     dE             d eps       ncg     rms          rms(c)
RMM:   1    -0.649049924249E+03   -0.74255E-04   -0.35094E-02 18608   0.439E-01    0.436E-02
RMM:   2    -0.649050017824E+03   -0.93575E-04   -0.13970E-03 18763   0.110E-01    0.818E-02
RMM:   3    -0.649050029311E+03   -0.11486E-04   -0.29216E-04 19804   0.442E-02    0.295E-02
RMM:   4    -0.649050045499E+03   -0.16188E-04   -0.44869E-05 13925   0.177E-02    0.332E-02
RMM:   5    -0.649050061439E+03   -0.15940E-04   -0.16303E-05 11590   0.101E-02    0.322E-02
RMM:   6    -0.649050066672E+03   -0.52335E-05   -0.53625E-06 11348   0.641E-03
  38 F= -.65161645E+03 E0= -.65160928E+03  d E =-.201352E-03  mag=    -0.4883
       N       E                     dE             d eps       ncg     rms          rms(c)
RMM:   1    -0.649049853409E+03    0.20803E-03   -0.81600E-02 18612   0.669E-01    0.657E-02
RMM:   2    -0.649050093349E+03   -0.23994E-03   -0.32418E-03 18762   0.167E-01    0.126E-01
RMM:   3    -0.649050122082E+03   -0.28732E-04   -0.66612E-04 20464   0.667E-02    0.438E-02
RMM:   4    -0.649050146016E+03   -0.23934E-04   -0.10218E-04 17932   0.256E-02    0.510E-02
RMM:   5    -0.649050169550E+03   -0.23534E-04   -0.40043E-05 14257   0.150E-02    0.503E-02
RMM:   6    -0.649050175606E+03   -0.60557E-05   -0.11322E-05 11632   0.871E-03
  39 F= -.65161654E+03 E0= -.65160937E+03  d E =-.297828E-03  mag=    -0.4906
       N       E                     dE             d eps       ncg     rms          rms(c)
RMM:   1    -0.649050217654E+03   -0.48104E-04   -0.26635E-02 18612   0.386E-01    0.413E-02
RMM:   2    -0.649050282937E+03   -0.65283E-04   -0.10414E-03 18754   0.930E-02    0.502E-02
RMM:   3    -0.649050300143E+03   -0.17205E-04   -0.21414E-04 19322   0.367E-02    0.443E-02
RMM:   4    -0.649050309451E+03   -0.93087E-05   -0.33301E-05 12957   0.155E-02    0.175E-02
RMM:   5    -0.649050323193E+03   -0.13742E-04   -0.19185E-05 11658   0.994E-03    0.184E-02
RMM:   6    -0.649050326748E+03   -0.35553E-05   -0.41360E-06 11330   0.666E-03
  40 F= -.65161669E+03 E0= -.65160953E+03  d E =-.149824E-03  mag=    -0.4896
