KAIST-INCAR                             
           1
    14.778400    0.000000    0.000000
    -7.389200   12.798470    0.000000
     0.000000    0.000000   15.000000
   C    N    Ni   H 
    66     4     1     1
Direct configuration=     1
   0.00022000  0.00011000  0.11003000
   0.05767000  0.11195000  0.11003000
   0.16505000  0.99790001  0.11003000
   0.22183999  0.10857000  0.11004000
   0.33214000  0.99796998  0.11003000
   0.38903001  0.10791000  0.11004000
   0.50020999  0.00013000  0.11003000
   0.55673999  0.11027000  0.11003000
   0.66803998  0.00166000  0.11003000
   0.72435999  0.11221000  0.11003000
   0.83508998  0.00167000  0.11003000
   0.89218003  0.11329000  0.11003000
   0.00396000  0.16926999  0.11003000
   0.06220000  0.28112999  0.11002000
   0.16903999  0.16661000  0.11003000
   0.22928999  0.27873999  0.11001000
   0.33296999  0.16200000  0.11004000
   0.38841999  0.27100000  0.11001000
   0.49985000  0.16331001  0.11004000
   0.55592000  0.27348000  0.11003000
   0.66803998  0.16643999  0.11003000
   0.72384000  0.27728999  0.11003000
   0.83598000  0.16802999  0.11003000
   0.89218998  0.27897000  0.11003000
   0.00398000  0.33475000  0.11003000
   0.05768000  0.44580999  0.11003000
   0.17545000  0.33774999  0.11001000
   0.22928999  0.45060000  0.11001000
   0.50046003  0.32703000  0.11001000
   0.66703999  0.33116999  0.11003000
   0.71983999  0.44200998  0.11003000
   0.83512002  0.33351001  0.11003000
   0.88866001  0.44433001  0.11003000
   0.00024000  0.50019002  0.11003000
   0.05379000  0.61102003  0.11003000
   0.16903999  0.50247997  0.11003000
   0.22183999  0.61334002  0.11003000
   0.38841000  0.61747998  0.11001000
   0.65959001  0.49388999  0.11001000
   0.71344000  0.60674000  0.11001000
   0.83121002  0.49871999  0.11003000
   0.88493002  0.60975999  0.11003000
   0.99671000  0.66554999  0.11003000
   0.05290000  0.77648997  0.11003000
   0.16506000  0.66720003  0.11003000
   0.22085001  0.77806002  0.11003000
   0.33296001  0.67101997  0.11004000
   0.38903001  0.78118002  0.11004000
   0.50046998  0.67351001  0.11001000
   0.55592000  0.78249002  0.11004000
   0.65960002  0.66575998  0.11001000
   0.71985000  0.77789003  0.11003000
   0.82669002  0.66337001  0.11003000
   0.88490999  0.77521998  0.11003000
   0.99668998  0.83121997  0.11003000
   0.05377000  0.94283998  0.11003000
   0.16451999  0.83228999  0.11003000
   0.22085001  0.94284999  0.11003000
   0.33214000  0.83421999  0.11003000
   0.38867000  0.94435000  0.11003000
   0.49985000  0.83658999  0.11004000
   0.55675000  0.94651997  0.11003000
   0.66703999  0.83594000  0.11003000
   0.72382999  0.94659001  0.11003000
   0.83120000  0.83257002  0.11003000
   0.88863999  0.94440001  0.11003000
   0.33587000  0.32548001  0.11000000
   0.55300999  0.43404999  0.11000000
   0.33585000  0.51045001  0.11000000
   0.55303001  0.61904001  0.11000000
   0.44444001  0.47225002  0.10998000
   0.43855000  0.46359000  0.19968000
Direct configuration=     2
   0.00025689  0.00011920  0.11003336
   0.05761001  0.11191462  0.11001899
   0.16508979  0.99793846  0.11002791
   0.22182163  0.10856069  0.11003568
   0.33216131  0.99792895  0.11002063
   0.38892008  0.10792051  0.11003923
   0.50030683  0.00017393  0.11002705
   0.55672429  0.11020801  0.11002245
   0.66807972  0.00166751  0.11002989
   0.72432413  0.11219244  0.11003089
   0.83515505  0.00169133  0.11003125
   0.89211459  0.11325798  0.11003090
   0.00404116  0.16930519  0.11003017
   0.06211209  0.28108081  0.11002500
   0.16902839  0.16660750  0.11004427
   0.22917317  0.27867067  0.11013519
   0.33296968  0.16188265  0.11010560
   0.38819771  0.27145924  0.11001438
   0.49996763  0.16345434  0.11003939
   0.55590088  0.27333920  0.11009131
   0.66807533  0.16646443  0.11003005
   0.72379669  0.27728624  0.11002754
   0.83607307  0.16807395  0.11002891
   0.89213535  0.27893582  0.11003094
   0.00405087  0.33481511  0.11003004
   0.05761808  0.44575771  0.11002068
   0.17563271  0.33783620  0.10997888
   0.22918840  0.45059413  0.11011930
   0.50070079  0.32771754  0.11000539
   0.66706463  0.33118342  0.11002644
   0.71986141  0.44202411  0.11004272
   0.83516583  0.33354243  0.11003145
   0.88862573  0.44430194  0.11003178
   0.00026891  0.50022573  0.11003296
   0.05373160  0.61097158  0.11003189
   0.16902377  0.50248190  0.11003917
   0.22182684  0.61330178  0.11002879
   0.38816960  0.61676832  0.11003394
   0.65968464  0.49391233  0.11013342
   0.71325594  0.60665305  0.10998879
   0.83127321  0.49874682  0.11001829
   0.88484567  0.60970260  0.11003111
   0.99677060  0.66558607  0.11003094
   0.05281186  0.77644216  0.11002993
   0.16509401  0.66722833  0.11002701
   0.22080573  0.77803281  0.11003052
   0.33296833  0.67116015  0.11009753
   0.38891746  0.78104781  0.11003872
   0.50071791  0.67303862  0.11002375
   0.55590620  0.78263331  0.11009148
   0.65968978  0.66585120  0.11011847
   0.71986340  0.77790242  0.11003953
   0.82677608  0.66341528  0.11002898
   0.88483004  0.77520559  0.11003086
   0.99675466  0.83125082  0.11003089
   0.05371515  0.94281672  0.11003195
   0.16456312  0.83231256  0.11002988
   0.22080752  0.94282717  0.11003073
   0.33215682  0.83427949  0.11002210
   0.38857856  0.94431841  0.11002622
   0.49996957  0.83657083  0.11003999
   0.55672325  0.94656834  0.11002409
   0.66705921  0.83592020  0.11002808
   0.72378572  0.94657510  0.11002784
   0.83127195  0.83259187  0.11001947
   0.88861251  0.94439525  0.11003158
   0.33725222  0.32699672  0.10945468
   0.55160128  0.43423349  0.10950634
   0.33727966  0.51029442  0.10952379
   0.55158307  0.61739438  0.10956531
   0.44454702  0.47235878  0.10895547
   0.43849316  0.46355124  0.20199797
Direct configuration=     3
   0.00026897  0.00012221  0.11003446
   0.05759037  0.11190304  0.11001539
   0.16510282  0.99795105  0.11002723
   0.22181562  0.10855764  0.11003427
   0.33216829  0.99791551  0.11001756
   0.38888409  0.10792395  0.11003898
   0.50033854  0.00018832  0.11002609
   0.55671915  0.11018772  0.11001998
   0.66809274  0.00166996  0.11002986
   0.72431239  0.11218670  0.11003119
   0.83517635  0.00169831  0.11003166
   0.89209316  0.11324749  0.11003119
   0.00406773  0.16931671  0.11003022
   0.06208331  0.28106470  0.11002664
   0.16902459  0.16660668  0.11004895
   0.22913493  0.27864798  0.11017618
   0.33296957  0.16184424  0.11012708
   0.38812493  0.27160959  0.11001582
   0.50000614  0.16350160  0.11003918
   0.55589462  0.27329311  0.11011138
   0.66808690  0.16647243  0.11003007
   0.72378252  0.27728502  0.11002673
   0.83610354  0.16808834  0.11002855
   0.89211747  0.27892463  0.11003124
   0.00407407  0.33483642  0.11003006
   0.05759781  0.44574059  0.11001763
   0.17569252  0.33786443  0.10996869
   0.22915513  0.45059221  0.11015509
   0.50077961  0.32794264  0.11000388
   0.66707269  0.33118781  0.11002527
   0.71986843  0.44202874  0.11004688
   0.83518083  0.33355305  0.11003193
   0.88861451  0.44429275  0.11003236
   0.00027837  0.50023742  0.11003393
   0.05371248  0.61095572  0.11003251
   0.16901846  0.50248254  0.11004218
   0.22182253  0.61328925  0.11002840
   0.38809089  0.61653533  0.11004178
   0.65971562  0.49391964  0.11017383
   0.71319568  0.60662459  0.10998184
   0.83129390  0.49875560  0.11001446
   0.88481805  0.60968381  0.11003147
   0.99679044  0.66559788  0.11003125
   0.05278300  0.77642651  0.11002990
   0.16510514  0.66723760  0.11002603
   0.22079124  0.77802390  0.11003069
   0.33297105  0.67120605  0.11011637
   0.38888061  0.78100452  0.11003830
   0.50079908  0.67288428  0.11002825
   0.55590168  0.78268023  0.11010834
   0.65971917  0.66588107  0.11015398
   0.71986779  0.77790648  0.11004265
   0.82680426  0.66343011  0.11002864
   0.88480386  0.77520087  0.11003114
   0.99677584  0.83126092  0.11003119
   0.05369720  0.94280910  0.11003258
   0.16457724  0.83231995  0.11002984
   0.22079361  0.94281969  0.11003096
   0.33216233  0.83429897  0.11001952
   0.38854862  0.94430807  0.11002498
   0.50000871  0.83656456  0.11003998
   0.55671449  0.94658417  0.11002215
   0.66706551  0.83591371  0.11002745
   0.72377122  0.94657022  0.11002714
   0.83129551  0.83259902  0.11001602
   0.88860351  0.94439369  0.11003210
   0.33770476  0.32749328  0.10927614
   0.55114007  0.43429356  0.10934472
   0.33774772  0.51024348  0.10936788
   0.55110935  0.61685560  0.10942299
   0.44458206  0.47239439  0.10862004
   0.43847455  0.46353856  0.20275686
Direct configuration=     4
   0.00020097  0.00008867  0.11003513
   0.05758792  0.11191932  0.11001117
   0.16504027  0.99793670  0.11001744
   0.22188579  0.10850493  0.11003263
   0.33208741  0.99793286  0.11000205
   0.38901579  0.10799852  0.11005407
   0.50022787  0.00014473  0.11001781
   0.55679715  0.11028814  0.11000711
   0.66805649  0.00167305  0.11002911
   0.72440898  0.11223634  0.11003382
   0.83511708  0.00169664  0.11003357
   0.89217493  0.11325037  0.11003287
   0.00401413  0.16927926  0.11002869
   0.06217149  0.28111717  0.11003119
   0.16924536  0.16682639  0.11010363
   0.22991263  0.27929205  0.11024033
   0.33286775  0.16230811  0.11024480
   0.38856707  0.27199937  0.10995618
   0.49986272  0.16340970  0.11005340
   0.55602639  0.27390230  0.11022035
   0.66806101  0.16645027  0.11002921
   0.72384152  0.27734058  0.11001691
   0.83603904  0.16805363  0.11002790
   0.89218091  0.27900008  0.11003304
   0.00402272  0.33480370  0.11002867
   0.05758136  0.44573851  0.11001374
   0.17570750  0.33789726  0.10996812
   0.22995244  0.45071169  0.11021027
   0.50033846  0.32792061  0.10994177
   0.66699749  0.33105812  0.11002412
   0.71963235  0.44201506  0.11009727
   0.83512817  0.33349621  0.11003400
   0.88868203  0.44432871  0.11003159
   0.00020925  0.50017646  0.11003469
   0.05376543  0.61102155  0.11003522
   0.16924785  0.50247671  0.11008701
   0.22188712  0.61345569  0.11002844
   0.38855384  0.61659045  0.11002108
   0.65893340  0.49381191  0.11024455
   0.71317178  0.60663001  0.10999231
   0.83130037  0.49877356  0.11000873
   0.88487086  0.60970673  0.11003003
   0.99671014  0.66551567  0.11003319
   0.05284957  0.77645994  0.11002980
   0.16504794  0.66715758  0.11001604
   0.22082302  0.77805296  0.11003018
   0.33285878  0.67059601  0.11022504
   0.38901826  0.78108507  0.11005078
   0.50034431  0.67246564  0.11000193
   0.55602660  0.78216915  0.11020605
   0.65891770  0.66518674  0.11021583
   0.71963282  0.77767352  0.11008566
   0.82671008  0.66338768  0.11002789
   0.88486564  0.77522869  0.11002947
   0.99670449  0.83126030  0.11003328
   0.05375551  0.94281385  0.11003574
   0.16447661  0.83227103  0.11003181
   0.22082058  0.94283263  0.11003051
   0.33209141  0.83421665  0.11000578
   0.38865412  0.94435233  0.11001525
   0.49986240  0.83651743  0.11005276
   0.55679389  0.94655962  0.11001126
   0.66699704  0.83600908  0.11002624
   0.72383760  0.94655223  0.11001822
   0.83130318  0.83259838  0.11001052
   0.88867890  0.94441744  0.11003142
   0.33792849  0.32849019  0.10845177
   0.55091914  0.43506953  0.10858540
   0.33797417  0.50946578  0.10862994
   0.55088371  0.61584680  0.10873891
   0.44458518  0.47232379  0.10899112
   0.43848550  0.46363210  0.20473431
Direct configuration=     5
   0.00017484  0.00007578  0.11003539
   0.05758699  0.11192557  0.11000955
   0.16501624  0.99793119  0.11001368
   0.22191275  0.10848468  0.11003200
   0.33205633  0.99793952  0.10999609
   0.38906640  0.10802717  0.11005987
   0.50018535  0.00012798  0.11001463
   0.55682712  0.11032672  0.11000217
   0.66804257  0.00167424  0.11002883
   0.72444609  0.11225541  0.11003483
   0.83509431  0.00169599  0.11003430
   0.89220635  0.11325148  0.11003351
   0.00399354  0.16926487  0.11002810
   0.06220537  0.28113733  0.11003293
   0.16933019  0.16691081  0.11012464
   0.23021146  0.27953953  0.11026497
   0.33282863  0.16248634  0.11029003
   0.38873696  0.27214914  0.10993327
   0.49980761  0.16337439  0.11005886
   0.55607702  0.27413637  0.11026222
   0.66805106  0.16644175  0.11002888
   0.72386420  0.27736193  0.11001314
   0.83601426  0.16804028  0.11002765
   0.89220529  0.27902908  0.11003373
   0.00400298  0.33479112  0.11002813
   0.05757504  0.44573771  0.11001225
   0.17571326  0.33790987  0.10996791
   0.23025880  0.45075760  0.11023147
   0.50016895  0.32791214  0.10991791
   0.66696859  0.33100829  0.11002368
   0.71954165  0.44200980  0.11011663
   0.83510794  0.33347438  0.11003480
   0.88870797  0.44434252  0.11003129
   0.00018269  0.50015304  0.11003499
   0.05378578  0.61104684  0.11003626
   0.16933599  0.50247447  0.11010424
   0.22191194  0.61351964  0.11002845
   0.38873172  0.61661163  0.11001313
   0.65863285  0.49377052  0.11027172
   0.71316259  0.60663210  0.10999633
   0.83130286  0.49878046  0.11000653
   0.88489115  0.60971553  0.11002948
   0.99667929  0.66548408  0.11003393
   0.05287515  0.77647278  0.11002976
   0.16502596  0.66712684  0.11001221
   0.22083523  0.77806412  0.11002999
   0.33281564  0.67036161  0.11026679
   0.38907115  0.78111602  0.11005557
   0.50016957  0.67230478  0.10999181
   0.55607460  0.78197278  0.11024360
   0.65860975  0.66491995  0.11023959
   0.71954254  0.77758401  0.11010218
   0.82667389  0.66337138  0.11002761
   0.88488938  0.77523938  0.11002884
   0.99667708  0.83126007  0.11003408
   0.05377792  0.94281568  0.11003695
   0.16443795  0.83225223  0.11003257
   0.22083095  0.94283759  0.11003034
   0.33206415  0.83418503  0.11000050
   0.38869466  0.94436934  0.11001151
   0.49980618  0.83649932  0.11005767
   0.55682440  0.94655018  0.11000708
   0.66697074  0.83604572  0.11002578
   0.72386310  0.94654532  0.11001480
   0.83130613  0.83259814  0.11000841
   0.88870787  0.94442657  0.11003116
   0.33801446  0.32887324  0.10813502
   0.55083425  0.43536769  0.10829365
   0.33806118  0.50916695  0.10834640
   0.55079702  0.61545918  0.10847606
   0.44458637  0.47229667  0.10913371
   0.43848970  0.46366804  0.20549411
Direct configuration=     6
   0.00022130  0.00007862  0.11003238
   0.05783108  0.11215487  0.11002188
   0.16506389  0.99786202  0.10999557
   0.22190993  0.10870908  0.11004854
   0.33211008  0.99803643  0.10998131
   0.38887897  0.10829180  0.11010642
   0.50025596  0.00016267  0.10999746
   0.55676844  0.11036249  0.10998968
   0.66813547  0.00167231  0.11002594
   0.72445028  0.11225656  0.11003865
   0.83514185  0.00168130  0.11003494
   0.89217043  0.11324715  0.11003392
   0.00403218  0.16927861  0.11002506
   0.06233650  0.28121071  0.11005101
   0.16973954  0.16728478  0.11022958
   0.23068842  0.28014744  0.11019116
   0.33307407  0.16286971  0.11042787
   0.38874651  0.27265926  0.10974744
   0.50000385  0.16386382  0.11010162
   0.55581633  0.27426608  0.11038887
   0.66814053  0.16653083  0.11002523
   0.72381926  0.27723274  0.10999543
   0.83607142  0.16807064  0.11002806
   0.89216631  0.27898814  0.11003466
   0.00402802  0.33480914  0.11002565
   0.05783751  0.44574892  0.11002197
   0.17587439  0.33798712  0.10999380
   0.23074619  0.45063482  0.11016413
   0.50015627  0.32841168  0.10974109
   0.66697572  0.33124611  0.11003941
   0.71912679  0.44198522  0.11021486
   0.83514271  0.33352177  0.11003544
   0.88866735  0.44429674  0.11002691
   0.00021719  0.50020455  0.11003239
   0.05373899  0.61098289  0.11003765
   0.16975200  0.50252493  0.11019565
   0.22191137  0.61326567  0.11004296
   0.38874171  0.61609385  0.10988596
   0.65816499  0.49391014  0.11021622
   0.71300106  0.60654850  0.11003337
   0.83104518  0.49876026  0.11001615
   0.88484942  0.60969415  0.11002507
   0.99671605  0.66552022  0.11003509
   0.05281490  0.77644149  0.11003068
   0.16506493  0.66726926  0.10999481
   0.22075248  0.77798179  0.11002646
   0.33307554  0.67024451  0.11039976
   0.38887500  0.78063743  0.11009664
   0.50015838  0.67177350  0.10986826
   0.55580936  0.78158851  0.11036287
   0.65812466  0.66430625  0.11018876
   0.71912261  0.77720362  0.11018926
   0.82654387  0.66331211  0.11004218
   0.88485863  0.77522329  0.11002460
   0.99671950  0.83126337  0.11003563
   0.05373871  0.94281946  0.11003887
   0.16443168  0.83224729  0.11003644
   0.22075021  0.94283543  0.11002647
   0.33211301  0.83414064  0.10998639
   0.38862786  0.94434616  0.10999113
   0.50000296  0.83619012  0.11009563
   0.55676845  0.94647139  0.10999598
   0.66697449  0.83579547  0.11003793
   0.72382051  0.94664989  0.10999847
   0.83104127  0.83235034  0.11001608
   0.88866841  0.94443409  0.11002695
   0.33832207  0.32934097  0.10718685
   0.55054032  0.43553843  0.10741898
   0.33838838  0.50900174  0.10749568
   0.55048525  0.61497560  0.10768593
   0.44450684  0.47214206  0.11058661
   0.43856415  0.46388095  0.20728933
Direct configuration=     7
   0.00025546  0.00008072  0.11003018
   0.05801056  0.11232348  0.11003094
   0.16509892  0.99781117  0.10998226
   0.22190786  0.10887408  0.11006071
   0.33214960  0.99810769  0.10997044
   0.38874115  0.10848638  0.11014065
   0.50030789  0.00018817  0.10998484
   0.55672530  0.11038879  0.10998049
   0.66820378  0.00167089  0.11002382
   0.72445335  0.11225741  0.11004146
   0.83517681  0.00167049  0.11003541
   0.89214402  0.11324397  0.11003423
   0.00406060  0.16928871  0.11002283
   0.06243293  0.28126467  0.11006431
   0.17004054  0.16755976  0.11030674
   0.23103914  0.28059444  0.11013689
   0.33325455  0.16315161  0.11052922
   0.38875354  0.27303436  0.10961080
   0.50014815  0.16422371  0.11013305
   0.55562464  0.27436145  0.11048199
   0.66820632  0.16659634  0.11002254
   0.72378621  0.27713775  0.10998241
   0.83611345  0.16809296  0.11002837
   0.89213764  0.27895805  0.11003535
   0.00404643  0.33482239  0.11002382
   0.05803050  0.44575716  0.11002911
   0.17599287  0.33804392  0.11001284
   0.23110457  0.45054455  0.11011462
   0.50014695  0.32877899  0.10961108
   0.66698096  0.33142098  0.11005098
   0.71882174  0.44196715  0.11028710
   0.83516828  0.33355663  0.11003591
   0.88863747  0.44426307  0.11002369
   0.00024256  0.50024242  0.11003047
   0.05370459  0.61093587  0.11003868
   0.17005790  0.50256204  0.11026287
   0.22191094  0.61307892  0.11005363
   0.38874906  0.61571311  0.10979245
   0.65782096  0.49401282  0.11017541
   0.71288228  0.60648703  0.11006061
   0.83085570  0.49874540  0.11002322
   0.88481873  0.60967843  0.11002183
   0.99674307  0.66554680  0.11003595
   0.05277059  0.77641848  0.11003136
   0.16509358  0.66737398  0.10998201
   0.22069164  0.77792126  0.11002386
   0.33326665  0.67015840  0.11049754
   0.38873076  0.78028551  0.11012684
   0.50015015  0.67138285  0.10977742
   0.55561432  0.78130595  0.11045056
   0.65776796  0.66385498  0.11015139
   0.71881383  0.77692391  0.11025329
   0.82644825  0.66326853  0.11005290
   0.88483603  0.77521146  0.11002148
   0.99675069  0.83126579  0.11003676
   0.05370988  0.94282225  0.11004028
   0.16442708  0.83224365  0.11003928
   0.22069084  0.94283384  0.11002362
   0.33214894  0.83410801  0.10997601
   0.38857874  0.94432912  0.10997615
   0.50014765  0.83596276  0.11012355
   0.55672731  0.94641345  0.10998782
   0.66697725  0.83561146  0.11004686
   0.72378920  0.94672678  0.10998647
   0.83084652  0.83216812  0.11002172
   0.88863940  0.94443963  0.11002386
   0.33854826  0.32968490  0.10648965
   0.55032419  0.43566398  0.10677583
   0.33862898  0.50888026  0.10687014
   0.55025600  0.61462002  0.10710494
   0.44444835  0.47202838  0.11165495
   0.43861889  0.46403751  0.20860938
Direct configuration=     8
   0.00043610  0.00034981  0.11002412
   0.05837183  0.11254005  0.11008239
   0.16513778  0.99816399  0.10996578
   0.22222450  0.10912135  0.11012658
   0.33214942  0.99835015  0.10997074
   0.38896020  0.10885321  0.11023983
   0.50030329  0.00018734  0.10995326
   0.55673944  0.11066514  0.10998139
   0.66806585  0.00168502  0.11001578
   0.72450009  0.11228376  0.11004320
   0.83513354  0.00172228  0.11003107
   0.89220082  0.11324556  0.11002919
   0.00428004  0.16946473  0.11002476
   0.06245227  0.28126373  0.11011423
   0.17029281  0.16811858  0.11043580
   0.23084650  0.28053704  0.10984389
   0.33317432  0.16340862  0.11061995
   0.38871704  0.27330109  0.10920704
   0.49993371  0.16435236  0.11022432
   0.55570584  0.27471198  0.11056242
   0.66806330  0.16644539  0.11001236
   0.72375075  0.27747648  0.10996636
   0.83610290  0.16807939  0.11003070
   0.89218961  0.27901022  0.11003128
   0.00427215  0.33489309  0.11002684
   0.05838014  0.44589270  0.11007221
   0.17632573  0.33820407  0.11001511
   0.23090634  0.45041142  0.10985287
   0.50018256  0.32906509  0.10923204
   0.66665904  0.33134864  0.11011213
   0.71857961  0.44227998  0.11041119
   0.83512498  0.33347034  0.11003109
   0.88843935  0.44435591  0.11001659
   0.00043451  0.50014221  0.11002376
   0.05375040  0.61102963  0.11003485
   0.17031405  0.50223775  0.11037991
   0.22223810  0.61317722  0.11011081
   0.38872534  0.61540336  0.10946546
   0.65802128  0.49414658  0.10991647
   0.71256566  0.60632683  0.11007493
   0.83049906  0.49861029  0.11006972
   0.88459659  0.60961915  0.11002077
   0.99667981  0.66548887  0.11003156
   0.05278103  0.77641763  0.11003398
   0.16513259  0.66703804  0.10996595
   0.22081300  0.77805473  0.11001391
   0.33317523  0.66979320  0.11059583
   0.38895517  0.78014924  0.11021717
   0.50017450  0.67110145  0.10946794
   0.55570505  0.78103033  0.11053603
   0.65797469  0.66392753  0.10991862
   0.71856190  0.77635115  0.11036612
   0.82642934  0.66325421  0.11010244
   0.88460470  0.77505741  0.11002126
   0.99669402  0.83126120  0.11003321
   0.05375912  0.94279138  0.11003670
   0.16439253  0.83223199  0.11004166
   0.22080981  0.94282452  0.11001236
   0.33215519  0.83385974  0.10997339
   0.38857095  0.94431953  0.10994015
   0.49993444  0.83563447  0.11020582
   0.55672873  0.94612522  0.10998713
   0.66664951  0.83537066  0.11009868
   0.72375170  0.94634184  0.10997069
   0.83049848  0.83194690  0.11006162
   0.88844631  0.94414381  0.11001587
   0.33879863  0.32987867  0.10574598
   0.55004420  0.43560086  0.10610811
   0.33890167  0.50888336  0.10622321
   0.54995284  0.61432820  0.10652050
   0.44435582  0.47195794  0.11348364
   0.43875212  0.46435431  0.21037739
Direct configuration=     9
   0.00043735  0.00035167  0.11002408
   0.05837433  0.11254154  0.11008275
   0.16513805  0.99816643  0.10996566
   0.22222669  0.10912306  0.11012703
   0.33214942  0.99835182  0.10997075
   0.38896172  0.10885574  0.11024051
   0.50030326  0.00018733  0.10995304
   0.55673953  0.11066705  0.10998139
   0.66806489  0.00168512  0.11001572
   0.72450041  0.11228394  0.11004321
   0.83513324  0.00172264  0.11003104
   0.89220122  0.11324557  0.11002916
   0.00428156  0.16946595  0.11002478
   0.06245241  0.28126372  0.11011458
   0.17029456  0.16812245  0.11043669
   0.23084517  0.28053664  0.10984186
   0.33317377  0.16341040  0.11062058
   0.38871678  0.27330293  0.10920425
   0.49993222  0.16435325  0.11022495
   0.55570640  0.27471441  0.11056298
   0.66806231  0.16644435  0.11001229
   0.72375051  0.27747882  0.10996625
   0.83610282  0.16807929  0.11003072
   0.89218997  0.27901058  0.11003125
   0.00427372  0.33489358  0.11002686
   0.05838256  0.44589363  0.11007250
   0.17632803  0.33820518  0.11001513
   0.23090497  0.45041050  0.10985106
   0.50018281  0.32906707  0.10922942
   0.66665681  0.33134814  0.11011256
   0.71857794  0.44228215  0.11041205
   0.83512468  0.33346974  0.11003106
   0.88843798  0.44435655  0.11001654
   0.00043584  0.50014152  0.11002372
   0.05375071  0.61103028  0.11003483
   0.17031583  0.50223550  0.11038072
   0.22224036  0.61317790  0.11011121
   0.38872518  0.61540122  0.10946320
   0.65802266  0.49414750  0.10991468
   0.71256347  0.60632573  0.11007502
   0.83049660  0.49860935  0.11007004
   0.88459505  0.60961874  0.11002077
   0.99667938  0.66548847  0.11003153
   0.05278110  0.77641762  0.11003400
   0.16513286  0.66703572  0.10996584
   0.22081383  0.77805565  0.11001384
   0.33317460  0.66979067  0.11059651
   0.38895672  0.78014830  0.11021780
   0.50017467  0.67109951  0.10946579
   0.55570567  0.78102843  0.11053662
   0.65797612  0.66392804  0.10991701
   0.71856015  0.77634719  0.11036690
   0.82642921  0.66325411  0.11010279
   0.88460310  0.77505634  0.11002125
   0.99669363  0.83126117  0.11003318
   0.05375946  0.94279117  0.11003667
   0.16439229  0.83223191  0.11004167
   0.22081063  0.94282446  0.11001228
   0.33215523  0.83385803  0.10997338
   0.38857089  0.94431946  0.10993990
   0.49993297  0.83563220  0.11020639
   0.55672874  0.94612323  0.10998713
   0.66664724  0.83536900  0.11009904
   0.72375144  0.94633918  0.10997058
   0.83049608  0.83194537  0.11006189
   0.88844497  0.94414176  0.11001582
   0.33880036  0.32988001  0.10574084
   0.55004226  0.43560042  0.10610349
   0.33890356  0.50888338  0.10621873
   0.54995074  0.61432618  0.10651646
   0.44435518  0.47195745  0.11349629
   0.43875304  0.46435650  0.21038962
Direct configuration=    10
   0.00041714  0.00034195  0.11002453
   0.05848117  0.11269455  0.11015050
   0.16529092  0.99837274  0.10997496
   0.22232296  0.10937544  0.11021545
   0.33226717  0.99849033  0.10999267
   0.38899540  0.10895315  0.11034271
   0.50029552  0.00017641  0.10992480
   0.55661328  0.11066789  0.11000144
   0.66803243  0.00143943  0.11000569
   0.72440842  0.11223782  0.11003601
   0.83505562  0.00153743  0.11002191
   0.89234201  0.11331946  0.11001959
   0.00440322  0.16950140  0.11004008
   0.06261855  0.28134675  0.11016950
   0.17028491  0.16811408  0.11048621
   0.23074505  0.28040216  0.10951522
   0.33319842  0.16348540  0.11059508
   0.38874338  0.27317798  0.10877392
   0.49989682  0.16441953  0.11032003
   0.55569040  0.27475082  0.11053529
   0.66803737  0.16665997  0.11000015
   0.72358628  0.27752512  0.10997451
   0.83615747  0.16810581  0.11003161
   0.89233442  0.27908431  0.11002263
   0.00439935  0.33497160  0.11004277
   0.05848997  0.44585561  0.11013024
   0.17623084  0.33815577  0.10994038
   0.23079820  0.45041595  0.10956380
   0.50014620  0.32892226  0.10882225
   0.66656036  0.33151301  0.11019532
   0.71859077  0.44227673  0.11046286
   0.83505007  0.33357667  0.11002157
   0.88845304  0.44436725  0.11001633
   0.00042291  0.50013195  0.11002154
   0.05382537  0.61092776  0.11002571
   0.17031228  0.50223628  0.11042883
   0.22232987  0.61301515  0.11019043
   0.38874775  0.61551965  0.10909180
   0.65810593  0.49410534  0.10962122
   0.71266726  0.60637833  0.11001227
   0.83039457  0.49865692  0.11013284
   0.88447705  0.60953775  0.11003320
   0.99653738  0.66541364  0.11002186
   0.05272984  0.77639411  0.11003513
   0.16529247  0.66697967  0.10997311
   0.22085281  0.77785600  0.11000198
   0.33320427  0.66972990  0.11058807
   0.38899505  0.78008378  0.11031290
   0.50014407  0.67119033  0.10911360
   0.55568221  0.78095411  0.11052408
   0.65806652  0.66403611  0.10965679
   0.71857040  0.77635768  0.11041515
   0.82626989  0.66317213  0.11015989
   0.88448271  0.77501325  0.11003464
   0.99654763  0.83119271  0.11002430
   0.05383367  0.94296606  0.11002744
   0.16447274  0.83227042  0.11003471
   0.22085078  0.94306155  0.10999891
   0.33227272  0.83383026  0.10998955
   0.38859183  0.94432227  0.10990855
   0.49989476  0.83552109  0.11029386
   0.55660815  0.94599553  0.11000237
   0.66655220  0.83510960  0.11017267
   0.72358879  0.94612450  0.10997633
   0.83038833  0.83179889  0.11011633
   0.88845176  0.94414165  0.11001316
   0.33861864  0.32981997  0.10558218
   0.55018936  0.43570954  0.10599031
   0.33872694  0.50873718  0.10611221
   0.55009478  0.61432656  0.10644761
   0.44432294  0.47199330  0.11446383
   0.43887619  0.46462423  0.21159077
Direct configuration=    11
   0.00040439  0.00033583  0.11002481
   0.05854853  0.11279101  0.11019321
   0.16538731  0.99850282  0.10998082
   0.22238366  0.10953457  0.11027119
   0.33234141  0.99857765  0.11000650
   0.38901664  0.10901456  0.11040714
   0.50029064  0.00016952  0.10990699
   0.55653369  0.11066842  0.11001407
   0.66801196  0.00128453  0.10999936
   0.72435041  0.11220874  0.11003147
   0.83500668  0.00142065  0.11001615
   0.89243078  0.11336605  0.11001356
   0.00447993  0.16952375  0.11004972
   0.06272330  0.28139909  0.11020413
   0.17027882  0.16810881  0.11051743
   0.23068193  0.28031737  0.10930928
   0.33321396  0.16353268  0.11057900
   0.38876016  0.27309921  0.10850261
   0.49987450  0.16446131  0.11037998
   0.55568031  0.27477378  0.11051784
   0.66802164  0.16679591  0.10999250
   0.72348274  0.27755430  0.10997972
   0.83619193  0.16812254  0.11003216
   0.89242549  0.27913079  0.11001720
   0.00447855  0.33502080  0.11005280
   0.05855769  0.44583164  0.11016664
   0.17616956  0.33812462  0.10989325
   0.23073088  0.45041938  0.10938269
   0.50012312  0.32883096  0.10856554
   0.66649955  0.33161696  0.11024750
   0.71859887  0.44227331  0.11049489
   0.83500303  0.33364408  0.11001560
   0.88846254  0.44437399  0.11001619
   0.00041475  0.50012591  0.11002017
   0.05387243  0.61086312  0.11001997
   0.17031005  0.50223676  0.11045917
   0.22238630  0.61291254  0.11024038
   0.38876198  0.61559432  0.10885764
   0.65815844  0.49407877  0.10943619
   0.71273269  0.60641150  0.10997271
   0.83033024  0.49868692  0.11017244
   0.88440264  0.60948668  0.11004104
   0.99644786  0.66536646  0.11001576
   0.05269752  0.77637929  0.11003585
   0.16539310  0.66694434  0.10997769
   0.22087738  0.77773011  0.10999451
   0.33322297  0.66969159  0.11058275
   0.38901922  0.78004310  0.11037285
   0.50012478  0.67124759  0.10889155
   0.55566742  0.78090726  0.11051617
   0.65812352  0.66410425  0.10949273
   0.71857686  0.77636429  0.11044556
   0.82616945  0.66312045  0.11019589
   0.88440681  0.77498607  0.11004308
   0.99645558  0.83114954  0.11001870