  53  53   0   0
  0.6566630E+02  0.1325440E-08  0.1312890E-08  0.2000000E-08  0.2000000E-15
  1.000000000000000E-004
  CAR 
 TS_BlakPhos                             
      3.66502350    -26.85494259  301     -1.35179097      1.00000000
    -26.855  0.0000E+00  0.0000E+00  0.0000E+00  0.0000E+00
    -26.753  0.0000E+00  0.0000E+00  0.0000E+00  0.0000E+00
    -26.651  0.0000E+00  0.0000E+00  0.0000E+00  0.0000E+00
    -26.550  0.0000E+00  0.0000E+00  0.0000E+00  0.0000E+00
    -26.448  0.0000E+00  0.0000E+00  0.0000E+00  0.0000E+00
    -26.346  0.0000E+00  0.0000E+00  0.0000E+00  0.0000E+00
    -26.245  0.0000E+00  0.0000E+00  0.0000E+00  0.0000E+00
    -26.143  0.0000E+00  0.0000E+00  0.0000E+00  0.0000E+00
    -26.041  0.0000E+00  0.0000E+00  0.0000E+00  0.0000E+00
    -25.939  0.0000E+00  0.0000E+00  0.0000E+00  0.0000E+00
    -25.838  0.0000E+00  0.0000E+00  0.0000E+00  0.0000E+00
    -25.736  0.1621E-15  0.1621E-15  0.1649E-16  0.1649E-16
    -25.634  0.1226E-07  0.1226E-07  0.1247E-08  0.1247E-08
    -25.532  0.3297E-03  0.3297E-03  0.3354E-04  0.3354E-04
    -25.431  0.8048E-02  0.8048E-02  0.8523E-03  0.8523E-03
    -25.329  0.1451E-02  0.1451E-02  0.1000E-02  0.1000E-02
    -25.227  0.4284E-06  0.4284E-06  0.1000E-02  0.1000E-02
    -25.125  0.5098E-13  0.5098E-13  0.1000E-02  0.1000E-02
    -25.024  0.0000E+00  0.0000E+00  0.1000E-02  0.1000E-02
    -24.922  0.0000E+00  0.0000E+00  0.1000E-02  0.1000E-02
    -24.820  0.0000E+00  0.0000E+00  0.1000E-02  0.1000E-02
    -24.719  0.0000E+00  0.0000E+00  0.1000E-02  0.1000E-02
    -24.617  0.0000E+00  0.0000E+00  0.1000E-02  0.1000E-02
    -24.515  0.0000E+00  0.0000E+00  0.1000E-02  0.1000E-02
    -24.413  0.7639E-17  0.7639E-17  0.1000E-02  0.1000E-02
    -24.312  0.1696E-08  0.1685E-08  0.1000E-02  0.1000E-02
    -24.210  0.1300E-03  0.1296E-03  0.1013E-02  0.1013E-02
    -24.108  0.7190E-02  0.7187E-02  0.1745E-02  0.1744E-02
    -24.006  0.2508E-02  0.2511E-02  0.2000E-02  0.2000E-02
    -23.905  0.2002E-05  0.2010E-05  0.2000E-02  0.2000E-02
    -23.803  0.7023E-12  0.7077E-12  0.2000E-02  0.2000E-02
    -23.701  0.0000E+00  0.0000E+00  0.2000E-02  0.2000E-02
    -23.599  0.0000E+00  0.0000E+00  0.2000E-02  0.2000E-02
    -23.498  0.0000E+00  0.0000E+00  0.2000E-02  0.2000E-02
    -23.396  0.0000E+00  0.0000E+00  0.2000E-02  0.2000E-02
    -23.294  0.0000E+00  0.0000E+00  0.2000E-02  0.2000E-02
    -23.193  0.0000E+00  0.0000E+00  0.2000E-02  0.2000E-02
    -23.091  0.0000E+00  0.0000E+00  0.2000E-02  0.2000E-02
    -22.989  0.0000E+00  0.0000E+00  0.2000E-02  0.2000E-02
    -22.887  0.0000E+00  0.0000E+00  0.2000E-02  0.2000E-02
    -22.786  0.0000E+00  0.0000E+00  0.2000E-02  0.2000E-02
    -22.684  0.0000E+00  0.0000E+00  0.2000E-02  0.2000E-02
    -22.582  0.0000E+00  0.0000E+00  0.2000E-02  0.2000E-02
    -22.480  0.0000E+00  0.0000E+00  0.2000E-02  0.2000E-02
    -22.379  0.0000E+00  0.0000E+00  0.2000E-02  0.2000E-02
    -22.277  0.0000E+00  0.0000E+00  0.2000E-02  0.2000E-02
    -22.175  0.0000E+00  0.0000E+00  0.2000E-02  0.2000E-02
    -22.073  0.0000E+00  0.0000E+00  0.2000E-02  0.2000E-02
    -21.972  0.0000E+00  0.0000E+00  0.2000E-02  0.2000E-02
    -21.870  0.0000E+00  0.0000E+00  0.2000E-02  0.2000E-02
    -21.768  0.0000E+00  0.0000E+00  0.2000E-02  0.2000E-02
    -21.667  0.0000E+00  0.0000E+00  0.2000E-02  0.2000E-02
    -21.565  0.0000E+00  0.0000E+00  0.2000E-02  0.2000E-02
    -21.463  0.0000E+00  0.0000E+00  0.2000E-02  0.2000E-02
    -21.361  0.0000E+00  0.0000E+00  0.2000E-02  0.2000E-02
    -21.260  0.0000E+00  0.0000E+00  0.2000E-02  0.2000E-02
    -21.158  0.0000E+00  0.0000E+00  0.2000E-02  0.2000E-02
    -21.056  0.0000E+00  0.0000E+00  0.2000E-02  0.2000E-02
    -20.954  0.0000E+00  0.0000E+00  0.2000E-02  0.2000E-02
    -20.853  0.0000E+00  0.0000E+00  0.2000E-02  0.2000E-02
    -20.751  0.0000E+00  0.0000E+00  0.2000E-02  0.2000E-02
    -20.649  0.0000E+00  0.0000E+00  0.2000E-02  0.2000E-02
    -20.547  0.0000E+00  0.0000E+00  0.2000E-02  0.2000E-02
    -20.446  0.0000E+00  0.0000E+00  0.2000E-02  0.2000E-02
    -20.344  0.0000E+00  0.0000E+00  0.2000E-02  0.2000E-02
    -20.242  0.0000E+00  0.0000E+00  0.2000E-02  0.2000E-02
    -20.141  0.0000E+00  0.0000E+00  0.2000E-02  0.2000E-02
    -20.039  0.0000E+00  0.0000E+00  0.2000E-02  0.2000E-02
    -19.937  0.0000E+00  0.0000E+00  0.2000E-02  0.2000E-02
    -19.835  0.0000E+00  0.0000E+00  0.2000E-02  0.2000E-02
    -19.734  0.0000E+00  0.0000E+00  0.2000E-02  0.2000E-02
    -19.632  0.0000E+00  0.0000E+00  0.2000E-02  0.2000E-02
    -19.530  0.0000E+00  0.0000E+00  0.2000E-02  0.2000E-02
    -19.428  0.0000E+00  0.0000E+00  0.2000E-02  0.2000E-02
    -19.327  0.0000E+00  0.0000E+00  0.2000E-02  0.2000E-02
    -19.225  0.0000E+00  0.0000E+00  0.2000E-02  0.2000E-02
    -19.123  0.0000E+00  0.0000E+00  0.2000E-02  0.2000E-02
    -19.021  0.0000E+00  0.0000E+00  0.2000E-02  0.2000E-02
    -18.920  0.0000E+00  0.0000E+00  0.2000E-02  0.2000E-02
    -18.818  0.0000E+00  0.0000E+00  0.2000E-02  0.2000E-02
    -18.716  0.0000E+00  0.0000E+00  0.2000E-02  0.2000E-02
    -18.615  0.0000E+00  0.0000E+00  0.2000E-02  0.2000E-02
    -18.513  0.0000E+00  0.0000E+00  0.2000E-02  0.2000E-02
    -18.411  0.0000E+00  0.0000E+00  0.2000E-02  0.2000E-02
    -18.309  0.0000E+00  0.0000E+00  0.2000E-02  0.2000E-02
    -18.208  0.0000E+00  0.0000E+00  0.2000E-02  0.2000E-02
    -18.106  0.0000E+00  0.0000E+00  0.2000E-02  0.2000E-02
    -18.004  0.0000E+00  0.0000E+00  0.2000E-02  0.2000E-02
    -17.902  0.0000E+00  0.0000E+00  0.2000E-02  0.2000E-02
    -17.801  0.0000E+00  0.0000E+00  0.2000E-02  0.2000E-02
    -17.699  0.0000E+00  0.0000E+00  0.2000E-02  0.2000E-02
    -17.597  0.4911E-16  0.4911E-16  0.2000E-02  0.2000E-02
    -17.495  0.5704E-08  0.5704E-08  0.2000E-02  0.2000E-02
    -17.394  0.2318E-03  0.2318E-03  0.2024E-02  0.2024E-02
    -17.292  0.7769E-02  0.7769E-02  0.2814E-02  0.2814E-02
    -17.190  0.1828E-02  0.1828E-02  0.3000E-02  0.3000E-02
    -17.089  0.8020E-06  0.8020E-06  0.3000E-02  0.3000E-02
    -16.987  0.1487E-12  0.1487E-12  0.3000E-02  0.3000E-02
    -16.885  0.6806E-07  0.6807E-07  0.3000E-02  0.3000E-02
    -16.783  0.8963E-03  0.8963E-03  0.3091E-02  0.3091E-02
    -16.682  0.1626E-01  0.1626E-01  0.4745E-02  0.4745E-02
    -16.580  0.1204E-01  0.1204E-01  0.5970E-02  0.5970E-02
    -16.478  0.9894E-02  0.9894E-02  0.6976E-02  0.6976E-02
    -16.376  0.2343E-03  0.2343E-03  0.7000E-02  0.7000E-02
    -16.275  0.5772E-08  0.5772E-08  0.7000E-02  0.7000E-02
    -16.173  0.2512E-05  0.2505E-05  0.7000E-02  0.7000E-02
    -16.071  0.4319E-02  0.4315E-02  0.7440E-02  0.7439E-02
    -15.969  0.3245E-01  0.3245E-01  0.1074E-01  0.1074E-01
    -15.868  0.1216E-01  0.1217E-01  0.1198E-01  0.1198E-01
    -15.766  0.2157E-03  0.2158E-03  0.1200E-01  0.1200E-01
    -15.664  0.4761E-08  0.4762E-08  0.1200E-01  0.1200E-01
    -15.563  0.5094E-13  0.5094E-13  0.1200E-01  0.1200E-01
    -15.461  0.5061E-06  0.5061E-06  0.1200E-01  0.1200E-01
    -15.359  0.2247E-02  0.2247E-02  0.1223E-01  0.1223E-01
    -15.257  0.1642E-01  0.1642E-01  0.1390E-01  0.1390E-01
    -15.156  0.9965E-03  0.9964E-03  0.1400E-01  0.1400E-01
    -15.054  0.7202E-07  0.7202E-07  0.1400E-01  0.1400E-01
    -14.952  0.7259E-13  0.7260E-13  0.1400E-01  0.1400E-01
    -14.850  0.5198E-06  0.5198E-06  0.1400E-01  0.1400E-01
    -14.749  0.1602E-02  0.1602E-02  0.1416E-01  0.1416E-01
    -14.647  0.1777E-01  0.1777E-01  0.1597E-01  0.1597E-01
    -14.545  0.2963E-01  0.2963E-01  0.1899E-01  0.1899E-01
    -14.443  0.1801E-01  0.1801E-01  0.2082E-01  0.2082E-01
    -14.342  0.1787E-02  0.1787E-02  0.2100E-01  0.2100E-01
    -14.240  0.1466E-02  0.1466E-02  0.2115E-01  0.2115E-01
    -14.138  0.2936E-01  0.2936E-01  0.2414E-01  0.2414E-01
    -14.037  0.8491E-02  0.8491E-02  0.2500E-01  0.2500E-01
    -13.935  0.4065E-02  0.4065E-02  0.2541E-01  0.2541E-01
    -13.833  0.1387E-01  0.1387E-01  0.2682E-01  0.2682E-01
    -13.731  0.1726E-02  0.1726E-02  0.2700E-01  0.2700E-01
    -13.630  0.6346E-06  0.6345E-06  0.2700E-01  0.2700E-01
    -13.528  0.9852E-13  0.9851E-13  0.2700E-01  0.2700E-01
    -13.426  0.0000E+00  0.0000E+00  0.2700E-01  0.2700E-01
    -13.324  0.0000E+00  0.0000E+00  0.2700E-01  0.2700E-01
    -13.223  0.0000E+00  0.0000E+00  0.2700E-01  0.2700E-01
    -13.121  0.0000E+00  0.0000E+00  0.2700E-01  0.2700E-01
    -13.019  0.0000E+00  0.0000E+00  0.2700E-01  0.2700E-01
    -12.917  0.0000E+00  0.0000E+00  0.2700E-01  0.2700E-01
    -12.816  0.0000E+00  0.0000E+00  0.2700E-01  0.2700E-01
    -12.714  0.0000E+00  0.0000E+00  0.2700E-01  0.2700E-01
    -12.612  0.0000E+00  0.0000E+00  0.2700E-01  0.2700E-01
    -12.511  0.0000E+00  0.0000E+00  0.2700E-01  0.2700E-01
    -12.409  0.0000E+00  0.0000E+00  0.2700E-01  0.2700E-01
    -12.307  0.0000E+00  0.0000E+00  0.2700E-01  0.2700E-01
    -12.205  0.1813E-13  0.1813E-13  0.2700E-01  0.2700E-01
    -12.104  0.2301E-06  0.2301E-06  0.2700E-01  0.2700E-01
    -12.002  0.1192E-02  0.1192E-02  0.2712E-01  0.2712E-01
    -11.900  0.1893E-01  0.1893E-01  0.2905E-01  0.2905E-01
    -11.798  0.3350E-01  0.3350E-01  0.3246E-01  0.3246E-01
    -11.697  0.9627E-02  0.9627E-02  0.3343E-01  0.3343E-01
    -11.595  0.1573E-01  0.1573E-01  0.3504E-01  0.3504E-01
    -11.493  0.9112E-02  0.9112E-02  0.3596E-01  0.3596E-01
    -11.391  0.4140E-02  0.4140E-02  0.3638E-01  0.3638E-01
    -11.290  0.3339E-01  0.3339E-01  0.3978E-01  0.3978E-01
    -11.188  0.1177E-01  0.1177E-01  0.4098E-01  0.4098E-01
    -11.086  0.6791E-02  0.6791E-02  0.4167E-01  0.4167E-01
    -10.985  0.1286E-01  0.1286E-01  0.4298E-01  0.4298E-01
    -10.883  0.2408E-03  0.2408E-03  0.4300E-01  0.4300E-01
    -10.781  0.4998E-08  0.4998E-08  0.4300E-01  0.4300E-01
    -10.679  0.3929E-16  0.3929E-16  0.4300E-01  0.4300E-01
    -10.578  0.0000E+00  0.0000E+00  0.4300E-01  0.4300E-01
    -10.476  0.0000E+00  0.0000E+00  0.4300E-01  0.4300E-01
    -10.374  0.0000E+00  0.0000E+00  0.4300E-01  0.4300E-01
    -10.272  0.0000E+00  0.0000E+00  0.4300E-01  0.4300E-01
    -10.171  0.3820E-17  0.3820E-17  0.4300E-01  0.4300E-01
    -10.069  0.1136E-08  0.1136E-08  0.4300E-01  0.4300E-01
     -9.967  0.1078E-03  0.1078E-03  0.4301E-01  0.4301E-01
     -9.865  0.8912E-02  0.8912E-02  0.4392E-01  0.4392E-01
     -9.764  0.1097E-01  0.1097E-01  0.4503E-01  0.4503E-01
     -9.662  0.2167E-01  0.2167E-01  0.4724E-01  0.4724E-01
     -9.560  0.1716E-01  0.1716E-01  0.4898E-01  0.4898E-01
     -9.459  0.1618E-03  0.1618E-03  0.4900E-01  0.4900E-01
     -9.357  0.1382E-08  0.1382E-08  0.4900E-01  0.4900E-01
     -9.255  0.4365E-17  0.4365E-17  0.4900E-01  0.4900E-01
     -9.153  0.0000E+00  0.0000E+00  0.4900E-01  0.4900E-01
     -9.052  0.0000E+00  0.0000E+00  0.4900E-01  0.4900E-01
     -8.950  0.1191E-12  0.1191E-12  0.4900E-01  0.4900E-01
     -8.848  0.7097E-06  0.7097E-06  0.4900E-01  0.4900E-01
     -8.746  0.1749E-02  0.1749E-02  0.4918E-01  0.4918E-01
     -8.645  0.7831E-02  0.7831E-02  0.4997E-01  0.4997E-01
     -8.543  0.7385E-03  0.7384E-03  0.5005E-01  0.5005E-01
     -8.441  0.8663E-02  0.8663E-02  0.5093E-01  0.5093E-01
     -8.339  0.1140E-01  0.1140E-01  0.5209E-01  0.5209E-01
     -8.238  0.1310E-01  0.1310E-01  0.5342E-01  0.5342E-01
     -8.136  0.1156E-01  0.1156E-01  0.5460E-01  0.5460E-01
     -8.034  0.1397E-01  0.1397E-01  0.5602E-01  0.5602E-01
     -7.933  0.2070E-01  0.2070E-01  0.5813E-01  0.5813E-01
     -7.831  0.8536E-02  0.8537E-02  0.5899E-01  0.5899E-01
     -7.729  0.1947E-02  0.1947E-02  0.5919E-01  0.5919E-01
     -7.627  0.7918E-02  0.7919E-02  0.6000E-01  0.6000E-01
     -7.526  0.1112E-01  0.1112E-01  0.6113E-01  0.6113E-01
     -7.424  0.2145E-01  0.2145E-01  0.6331E-01  0.6331E-01
     -7.322  0.4081E-01  0.4081E-01  0.6746E-01  0.6746E-01
     -7.220  0.2201E-01  0.2201E-01  0.6970E-01  0.6970E-01
     -7.119  0.2877E-01  0.2877E-01  0.7263E-01  0.7263E-01
     -7.017  0.3651E-02  0.3651E-02  0.7300E-01  0.7300E-01
     -6.915  0.3735E-02  0.3735E-02  0.7338E-01  0.7338E-01
     -6.813  0.2173E-01  0.2173E-01  0.7559E-01  0.7559E-01
     -6.712  0.1325E-01  0.1325E-01  0.7694E-01  0.7694E-01
     -6.610  0.5651E-02  0.5648E-02  0.7751E-01  0.7751E-01
     -6.508  0.6683E-02  0.6686E-02  0.7819E-01  0.7819E-01
     -6.407  0.2074E-01  0.2074E-01  0.8030E-01  0.8030E-01
     -6.305  0.1535E-01  0.1535E-01  0.8186E-01  0.8186E-01
     -6.203  0.8686E-02  0.8687E-02  0.8275E-01  0.8275E-01
     -6.101  0.1394E-01  0.1394E-01  0.8417E-01  0.8417E-01
     -6.000  0.1464E-01  0.1464E-01  0.8566E-01  0.8566E-01
     -5.898  0.3399E-02  0.3400E-02  0.8600E-01  0.8600E-01
     -5.796  0.5001E-02  0.5001E-02  0.8651E-01  0.8651E-01
     -5.694  0.1733E-01  0.1733E-01  0.8827E-01  0.8827E-01
     -5.593  0.2252E-01  0.2252E-01  0.9056E-01  0.9056E-01
     -5.491  0.1185E-01  0.1185E-01  0.9177E-01  0.9177E-01
     -5.389  0.2260E-02  0.2260E-02  0.9200E-01  0.9200E-01
     -5.287  0.1880E-02  0.1880E-02  0.9219E-01  0.9219E-01
     -5.186  0.1641E-01  0.1641E-01  0.9386E-01  0.9386E-01
     -5.084  0.5684E-02  0.5684E-02  0.9444E-01  0.9444E-01
     -4.982  0.9048E-02  0.9048E-02  0.9536E-01  0.9536E-01
     -4.881  0.1885E-01  0.1885E-01  0.9728E-01  0.9728E-01
     -4.779  0.1004E-01  0.1004E-01  0.9830E-01  0.9830E-01
     -4.677  0.8769E-02  0.8769E-02  0.9919E-01  0.9919E-01
     -4.575  0.1695E-01  0.1695E-01  0.1009E+00  0.1009E+00
     -4.474  0.2236E-01  0.2236E-01  0.1032E+00  0.1032E+00
     -4.372  0.1443E-01  0.1443E-01  0.1047E+00  0.1047E+00
     -4.270  0.2202E-01  0.2202E-01  0.1069E+00  0.1069E+00
     -4.168  0.1217E-01  0.1217E-01  0.1081E+00  0.1081E+00
     -4.067  0.2949E-01  0.2949E-01  0.1111E+00  0.1111E+00
     -3.965  0.1619E-01  0.1619E-01  0.1128E+00  0.1128E+00
     -3.863  0.1630E-01  0.1630E-01  0.1144E+00  0.1144E+00
     -3.762  0.2838E-01  0.2838E-01  0.1173E+00  0.1173E+00
     -3.660  0.2131E-01  0.2131E-01  0.1195E+00  0.1195E+00
     -3.558  0.2454E-01  0.2454E-01  0.1220E+00  0.1220E+00
     -3.456  0.3421E-01  0.3421E-01  0.1255E+00  0.1255E+00
     -3.355  0.1485E-01  0.1485E-01  0.1270E+00  0.1270E+00
     -3.253  0.1817E-03  0.1817E-03  0.1270E+00  0.1270E+00
     -3.151  0.9614E-04  0.9609E-04  0.1270E+00  0.1270E+00
     -3.049  0.7921E-02  0.7920E-02  0.1278E+00  0.1278E+00
     -2.948  0.1115E-01  0.1115E-01  0.1290E+00  0.1290E+00
     -2.846  0.4911E-03  0.4914E-03  0.1290E+00  0.1290E+00
     -2.744  0.5841E-03  0.5841E-03  0.1291E+00  0.1291E+00
     -2.642  0.9525E-02  0.9525E-02  0.1300E+00  0.1300E+00
     -2.541  0.9124E-02  0.9124E-02  0.1310E+00  0.1310E+00
     -2.439  0.4427E-03  0.4427E-03  0.1310E+00  0.1310E+00
     -2.337  0.7457E-02  0.7457E-02  0.1318E+00  0.1318E+00
     -2.236  0.1218E-01  0.1218E-01  0.1330E+00  0.1330E+00
     -2.134  0.7111E-02  0.7111E-02  0.1337E+00  0.1337E+00
     -2.032  0.2722E-02  0.2722E-02  0.1340E+00  0.1340E+00
     -1.930  0.2569E-05  0.2569E-05  0.1340E+00  0.1340E+00
     -1.829  0.1084E-11  0.1084E-11  0.1340E+00  0.1340E+00
     -1.727  0.5457E-18  0.5457E-18  0.1340E+00  0.1340E+00
     -1.625  0.2461E-09  0.2426E-09  0.1340E+00  0.1340E+00
     -1.523  0.4947E-04  0.4911E-04  0.1340E+00  0.1340E+00
     -1.422  0.6039E-02  0.6030E-02  0.1346E+00  0.1346E+00
     -1.320  0.4563E-02  0.4573E-02  0.1351E+00  0.1351E+00
     -1.218  0.8352E-02  0.8352E-02  0.1359E+00  0.1359E+00
     -1.116  0.6550E-03  0.6552E-03  0.1360E+00  0.1360E+00
     -1.015  0.1203E-06  0.1204E-06  0.1360E+00  0.1360E+00
     -0.913  0.6797E-03  0.6796E-03  0.1361E+00  0.1361E+00
     -0.811  0.1428E-01  0.1428E-01  0.1375E+00  0.1375E+00
     -0.710  0.2832E-01  0.2832E-01  0.1404E+00  0.1404E+00
     -0.608  0.1634E-01  0.1634E-01  0.1421E+00  0.1421E+00
     -0.506  0.1151E-01  0.1151E-01  0.1432E+00  0.1432E+00
     -0.404  0.8915E-02  0.8915E-02  0.1441E+00  0.1441E+00
     -0.303  0.2062E-01  0.2062E-01  0.1462E+00  0.1462E+00
     -0.201  0.2481E-01  0.2481E-01  0.1488E+00  0.1488E+00
     -0.099  0.1139E-01  0.1139E-01  0.1499E+00  0.1499E+00
      0.003  0.1614E-01  0.1614E-01  0.1516E+00  0.1516E+00
      0.104  0.2319E-01  0.2319E-01  0.1539E+00  0.1539E+00
      0.206  0.3184E-02  0.3184E-02  0.1542E+00  0.1542E+00
      0.308  0.1984E-01  0.1984E-01  0.1563E+00  0.1563E+00
      0.410  0.1899E-01  0.1899E-01  0.1582E+00  0.1582E+00
      0.511  0.2745E-01  0.2745E-01  0.1610E+00  0.1610E+00
      0.613  0.2943E-01  0.2943E-01  0.1640E+00  0.1640E+00
      0.715  0.1572E-01  0.1572E-01  0.1656E+00  0.1656E+00
      0.816  0.5588E-02  0.5588E-02  0.1662E+00  0.1662E+00
      0.918  0.1164E-01  0.1164E-01  0.1673E+00  0.1673E+00
      1.020  0.1228E-01  0.1228E-01  0.1686E+00  0.1686E+00
      1.122  0.4100E-01  0.4100E-01  0.1728E+00  0.1728E+00
      1.223  0.3006E-01  0.3006E-01  0.1758E+00  0.1758E+00
      1.325  0.1834E-01  0.1834E-01  0.1777E+00  0.1777E+00
      1.427  0.2079E-01  0.2079E-01  0.1798E+00  0.1798E+00
      1.529  0.1835E-01  0.1835E-01  0.1817E+00  0.1817E+00
      1.630  0.1001E-01  0.1001E-01  0.1827E+00  0.1827E+00
      1.732  0.1540E-01  0.1540E-01  0.1842E+00  0.1842E+00
      1.834  0.7311E-02  0.7311E-02  0.1850E+00  0.1850E+00
      1.936  0.9936E-04  0.9936E-04  0.1850E+00  0.1850E+00
      2.037  0.4947E-02  0.4947E-02  0.1855E+00  0.1855E+00
      2.139  0.1203E-01  0.1203E-01  0.1867E+00  0.1867E+00
      2.241  0.7727E-02  0.7727E-02  0.1875E+00  0.1875E+00
      2.342  0.1421E-01  0.1421E-01  0.1890E+00  0.1890E+00
      2.444  0.3843E-03  0.3842E-03  0.1890E+00  0.1890E+00
      2.546  0.1256E-07  0.1256E-07  0.1890E+00  0.1890E+00
      2.648  0.1615E-15  0.1615E-15  0.1890E+00  0.1890E+00
      2.749  0.0000E+00  0.0000E+00  0.1890E+00  0.1890E+00
      2.851  0.0000E+00  0.0000E+00  0.1890E+00  0.1890E+00
      2.953  0.0000E+00  0.0000E+00  0.1890E+00  0.1890E+00
      3.055  0.0000E+00  0.0000E+00  0.1890E+00  0.1890E+00
      3.156  0.0000E+00  0.0000E+00  0.1890E+00  0.1890E+00
      3.258  0.0000E+00  0.0000E+00  0.1890E+00  0.1890E+00
      3.360  0.0000E+00  0.0000E+00  0.1890E+00  0.1890E+00
      3.462  0.0000E+00  0.0000E+00  0.1890E+00  0.1890E+00
      3.563  0.0000E+00  0.0000E+00  0.1890E+00  0.1890E+00
      3.665  0.0000E+00  0.0000E+00  0.1890E+00  0.1890E+00
