   53   53 1000    2
  0.6566630E+02  0.1325440E-08  0.1312890E-08  0.2000000E-08  0.2000000E-15
  1.000000000000000E-004
  CAR 
 TS_BlakPhos                             
    270      1    189
 
  0.1262379E-14  0.1262379E-14  0.1262379E-14  0.1000000E+01
    1      -25.467671    -25.467671
    2      -24.131405    -24.131364
    3      -17.323579    -17.323580
    4      -16.730809    -16.730810
    5      -16.712526    -16.712527
    6      -16.607708    -16.607709
    7      -16.548246    -16.548246
    8      -16.048986    -16.048957
    9      -16.029978    -16.029954
   10      -16.010023    -16.010023
   11      -15.990767    -15.990768
   12      -15.939190    -15.939189
   13      -15.321576    -15.321576
   14      -15.310410    -15.310411
   15      -14.713348    -14.713349
   16      -14.655360    -14.655360
   17      -14.613754    -14.613754
   18      -14.613085    -14.613086
   19      -14.593321    -14.593322
   20      -14.494922    -14.494923
   21      -14.487052    -14.487052
   22      -14.191135    -14.191135
   23      -14.182342    -14.182343
   24      -14.157744    -14.157744
   25      -14.147310    -14.147311
   26      -13.924586    -13.924586
   27      -13.866706    -13.866706
   28      -11.959687    -11.959688
   29      -11.909897    -11.909898
   30      -11.879668    -11.879668
   31      -11.867076    -11.867077
   32      -11.827443    -11.827444
   33      -11.816805    -11.816805
   34      -11.685549    -11.685549
   35      -11.641428    -11.641428
   36      -11.555895    -11.555895
   37      -11.365070    -11.365071
   38      -11.345739    -11.345740
   39      -11.325485    -11.325485
   40      -11.323289    -11.323290
   41      -11.257470    -11.257471
   42      -11.083981    -11.083981
   43      -11.055744    -11.055744
   44       -9.886087     -9.886087
   45       -9.835455     -9.835456
   46       -9.703465     -9.703466
   47       -9.681207     -9.681207
   48       -9.650258     -9.650258
   49       -9.641701     -9.641702
   50       -8.713795     -8.713794
   51       -8.484742     -8.484738
   52       -8.379410     -8.379409
   53       -8.312084     -8.312084
   54       -8.232197     -8.232197
   55       -8.143254     -8.143253
   56       -8.064645     -8.064645
   57       -8.004408     -8.004407
   58       -7.959594     -7.959594
   59       -7.920781     -7.920781
   60       -7.698390     -7.698384
   61       -7.554909     -7.554899
   62       -7.499451     -7.499451
   63       -7.480980     -7.480980
   64       -7.392026     -7.392025
   65       -7.381636     -7.381633
   66       -7.368269     -7.368266
   67       -7.350560     -7.350560
   68       -7.330234     -7.330233
   69       -7.298051     -7.298045
   70       -7.220734     -7.220734
   71       -7.183822     -7.183822
   72       -7.160573     -7.160572
   73       -7.146178     -7.146178
   74       -6.894647     -6.894646
   75       -6.869186     -6.869185
   76       -6.819751     -6.819750
   77       -6.765850     -6.765848
   78       -6.611177     -6.611148
   79       -6.475719     -6.475720
   80       -6.430108     -6.430104
   81       -6.410394     -6.410393
   82       -6.343764     -6.343753
   83       -6.200303     -6.200303
   84       -6.182487     -6.182485
   85       -6.067834     -6.067831
   86       -6.016419     -6.016417
   87       -5.795611     -5.795610
   88       -5.719997     -5.719997
   89       -5.685685     -5.685685
   90       -5.649825     -5.649824
   91       -5.602156     -5.602156
   92       -5.517185     -5.517185
   93       -5.249044     -5.249044
   94       -5.230273     -5.230273
   95       -5.078546     -5.078546
   96       -4.963471     -4.963471
   97       -4.928639     -4.928640
   98       -4.869063     -4.869063
   99       -4.760560     -4.760560
  100       -4.646705     -4.646705
  101       -4.579311     -4.579311
  102       -4.564663     -4.564663
  103       -4.490686     -4.490686
  104       -4.474393     -4.474393
  105       -4.365115     -4.365115
  106       -4.336834     -4.336834
  107       -4.320687     -4.320688
  108       -4.179754     -4.179754
  109       -4.154469     -4.154468
  110       -4.132431     -4.132431
  111       -4.077181     -4.077181
  112       -4.071537     -4.071536
  113       -3.961436     -3.961436
  114       -3.948643     -3.948638
  115       -3.851239     -3.851238
  116       -3.807096     -3.807096
  117       -3.793149     -3.793149
  118       -3.762584     -3.762585
  119       -3.716570     -3.716569
  120       -3.658204     -3.658204
  121       -3.604504     -3.604500
  122       -3.575343     -3.575342
  123       -3.542469     -3.542468
  124       -3.499765     -3.499765
  125       -3.481527     -3.481527
  126       -3.465698     -3.465698
  127       -3.429140     -3.429140
  128       -3.068532     -3.068525
  129       -3.005913     -3.005902
  130       -2.689019     -2.689019
  131       -2.601292     -2.601291
  132       -2.333070     -2.333070
  133       -2.319430     -2.319430
  134       -2.154677     -2.154677
  135       -1.432381     -1.432291
  136       -1.271248     -1.271244
  137       -0.860274     -0.860273
  138       -0.804367     -0.804367
  139       -0.773722     -0.773722
  140       -0.748175     -0.748174
  141       -0.692781     -0.692782
  142       -0.686787     -0.686788
  143       -0.559451     -0.559452
  144       -0.487628     -0.487628
  145       -0.360747     -0.360746
  146       -0.343438     -0.343438
  147       -0.287409     -0.287409
  148       -0.247418     -0.247418
  149       -0.230548     -0.230548
  150       -0.147572     -0.147572
  151       -0.008279     -0.008278
  152       -0.000418     -0.000418
  153        0.018695      0.018696
  154        0.051127      0.051127
  155        0.234034      0.234034
  156        0.271153      0.271152
  157        0.323327      0.323327
  158        0.352391      0.352390
  159        0.435780      0.435779
  160        0.483177      0.483176
  161        0.491454      0.491454
  162        0.529077      0.529077
  163        0.552514      0.552513
  164        0.561305      0.561304
  165        0.657697      0.657697
  166        0.702354      0.702354
  167        0.852782      0.852782
  168        0.930091      0.930091
  169        1.036876      1.036875
  170        1.050371      1.050371
  171        1.075232      1.075232
  172        1.098637      1.098637
  173        1.105110      1.105109
  174        1.142133      1.142132
  175        1.156924      1.156924
  176        1.196633      1.196632
  177        1.275771      1.275772
  178        1.304482      1.304482
  179        1.390801      1.390801
  180        1.407726      1.407726
  181        1.452364      1.452363
  182        1.512673      1.512673
  183        1.621598      1.621598
  184        1.679260      1.679260
  185        1.748977      1.748978
  186        2.037880      2.037879
  187        2.117308      2.117308
  188        2.252707      2.252706
  189        2.277752      2.277752
