TS_BlakPhos                             
           1
    13.254400    0.000000    0.000000
     0.000000   13.128900    0.000000
     0.000000    0.000000   20.000000
   P    Ru   C    O 
  48   1   1   3
Direct configuration=     1
   0.06627074  0.20968299  0.04352257
   0.19257219  0.32088006  0.04288113
   0.19003125  0.04010145  0.14690826
   0.06533800  0.15350039  0.14917945
   0.31002044  0.19989364  0.03830650
   0.44016661  0.30560475  0.02538679
   0.43995467  0.04005168  0.14692557
   0.31524447  0.15292769  0.14617347
   0.57022484  0.19927882  0.03736905
   0.68883953  0.31934027  0.04076095
   0.68932621  0.04035709  0.14732235
   0.56436678  0.15330406  0.14561066
   0.81480444  0.20817483  0.04288862
   0.94008130  0.32077240  0.04123102
   0.93967537  0.04074401  0.14874298
   0.81422979  0.15360067  0.14896499
   0.06512499  0.53946172  0.03406312
   0.18942903  0.65375642  0.03152807
   0.19367862  0.38396256  0.14850554
   0.06576225  0.49334811  0.14199084
   0.31612381  0.54262172  0.02835670
   0.43908008  0.65551056  0.02720728
   0.44013405  0.36156349  0.13005182
   0.32925398  0.48670069  0.13534301
   0.56316642  0.54287929  0.02716677
   0.69000830  0.65363239  0.03295591
   0.68748703  0.38091837  0.14685083
   0.55438406  0.48354748  0.13297089
   0.81422631  0.53912638  0.03445500
   0.93949917  0.65238832  0.03450248
   0.94032043  0.38013319  0.14579486
   0.81416179  0.49243850  0.14210806
   0.06367170  0.87407705  0.04006843
   0.18832972  0.98692736  0.04037035
   0.19001615  0.70096271  0.13908276
   0.06470117  0.81313815  0.14468444
   0.31433316  0.87534736  0.03913881
   0.43996342  0.98729481  0.04062205
   0.43684924  0.70379321  0.13718295
   0.31229667  0.81645578  0.14450250
   0.56423756  0.87391664  0.04068629
   0.68993719  0.98567152  0.04108350
   0.68841320  0.69952383  0.14082082
   0.56466422  0.81321805  0.14625094
   0.81507832  0.87350854  0.04016854
   0.93927022  0.98722814  0.04229926
   0.93922894  0.70119095  0.14182036
   0.81334953  0.81278872  0.14488156
   0.43827700  0.56978815  0.20896574
   0.33739714  0.61712901  0.27172881
   0.51058742  0.57329931  0.29055749
   0.50903254  0.48553373  0.27772116
   0.27077111  0.64795800  0.30124016
Direct configuration=     2
   0.06637575  0.20961048  0.04354842
   0.19263347  0.32080207  0.04292207
   0.19011881  0.04002935  0.14700184
   0.06542446  0.15341938  0.14924698
   0.31008741  0.19987006  0.03837631
   0.44034277  0.30548561  0.02553026
   0.43999765  0.03993628  0.14700363
   0.31534190  0.15288639  0.14624136
   0.57033604  0.19915887  0.03739388
   0.68890957  0.31908259  0.04067423
   0.68938970  0.04030024  0.14739777
   0.56439356  0.15323132  0.14569230
   0.81484247  0.20797989  0.04289194
   0.94016437  0.32064446  0.04119112
   0.93976352  0.04067444  0.14881009
   0.81430663  0.15352546  0.14901186
   0.06517978  0.53939577  0.03389936
   0.18949953  0.65367358  0.03134117
   0.19380383  0.38409711  0.14846248
   0.06581983  0.49336299  0.14188221
   0.31615474  0.54251247  0.02816978
   0.43916767  0.65543649  0.02709382
   0.44011030  0.36155787  0.13003292
   0.32922940  0.48634481  0.13477771
   0.56327507  0.54284915  0.02719027
   0.69010834  0.65354279  0.03279954
   0.68770083  0.38098873  0.14674795
   0.55413980  0.48389987  0.13312922
   0.81429177  0.53904722  0.03431393
   0.93952544  0.65232803  0.03436191
   0.94039848  0.38015119  0.14573426
   0.81421531  0.49231965  0.14205504
   0.06377608  0.87399419  0.04009008
   0.18836075  0.98683370  0.04042292
   0.19009698  0.70074577  0.13894768
   0.06481105  0.81286011  0.14470328
   0.31434447  0.87529503  0.03919357
   0.44003120  0.98719304  0.04068058
   0.43686499  0.70403354  0.13699106
   0.31247194  0.81620864  0.14443893
   0.56435032  0.87387194  0.04072855
   0.69007385  0.98561936  0.04109662
   0.68847459  0.69941443  0.14068548
   0.56459137  0.81299795  0.14622778
   0.81512386  0.87349837  0.04015374
   0.93936267  0.98716085  0.04233527
   0.93927980  0.70101938  0.14175302
   0.81348648  0.81265904  0.14488257
   0.43449164  0.57075639  0.20684735
   0.33946931  0.61614152  0.26931560
   0.51040166  0.59072800  0.29674226
   0.50790573  0.46828271  0.27698301
   0.26724087  0.64949897  0.30245029
Direct configuration=     3
   0.06635654  0.20962374  0.04354369
   0.19262226  0.32081634  0.04291458
   0.19010280  0.04004254  0.14698472
   0.06540865  0.15343420  0.14923463
   0.31007516  0.19987437  0.03836354
   0.44031055  0.30550741  0.02550402
   0.43998979  0.03995739  0.14698935
   0.31532408  0.15289394  0.14622894
   0.57031570  0.19918081  0.03738934
   0.68889676  0.31912972  0.04069009
   0.68937809  0.04031064  0.14738398
   0.56438866  0.15324462  0.14567737
   0.81483551  0.20801555  0.04289134
   0.94014918  0.32066786  0.04119842
   0.93974740  0.04068716  0.14879781
   0.81429257  0.15353922  0.14900329
   0.06516976  0.53940784  0.03392932
   0.18948664  0.65368873  0.03137536
   0.19378093  0.38407250  0.14847035
   0.06580930  0.49336027  0.14190208
   0.31614908  0.54253246  0.02820397
   0.43915165  0.65545004  0.02711458
   0.44011464  0.36155890  0.13003637
   0.32923389  0.48640990  0.13488111
   0.56325520  0.54285466  0.02718597
   0.69009004  0.65355918  0.03282814
   0.68766172  0.38097586  0.14676677
   0.55418447  0.48383542  0.13310026
   0.81427979  0.53906170  0.03433973
   0.93952063  0.65233906  0.03438762
   0.94038420  0.38014790  0.14574534
   0.81420552  0.49234139  0.14206474
   0.06375699  0.87400934  0.04008612
   0.18835508  0.98685083  0.04041331
   0.19008220  0.70078545  0.13897238
   0.06479095  0.81291096  0.14469983
   0.31434240  0.87530460  0.03918355
   0.44001880  0.98721165  0.04066987
   0.43686211  0.70398958  0.13702616
   0.31243988  0.81625384  0.14445056
   0.56432970  0.87388012  0.04072082
   0.69004885  0.98562891  0.04109422
   0.68846336  0.69943444  0.14071024
   0.56460470  0.81303821  0.14623202
   0.81511553  0.87350023  0.04015645
   0.93934576  0.98717316  0.04232868
   0.93927050  0.70105076  0.14176534
   0.81346143  0.81268276  0.14488239
   0.43518402  0.57057929  0.20723483
   0.33909029  0.61632214  0.26975700
   0.51043564  0.58754011  0.29561100
   0.50811183  0.47143810  0.27711803
   0.26788659  0.64921711  0.30222894
Direct configuration=     4
   0.06634368  0.20963262  0.04354053
   0.19261475  0.32082589  0.04290957
   0.19009207  0.04005137  0.14697326
   0.06539806  0.15344412  0.14922636
   0.31006696  0.19987726  0.03835499
   0.44028898  0.30552200  0.02548645
   0.43998453  0.03997152  0.14697979
   0.31531215  0.15289900  0.14622063
   0.57030208  0.19919550  0.03738630
   0.68888818  0.31916128  0.04070071
   0.68937031  0.04031760  0.14737474
   0.56438538  0.15325353  0.14566737
   0.81483085  0.20803942  0.04289093
   0.94013900  0.32068353  0.04120330
   0.93973660  0.04069568  0.14878960
   0.81428316  0.15354843  0.14899755
   0.06516305  0.53941591  0.03394937
   0.18947800  0.65369888  0.03139825
   0.19376559  0.38405602  0.14847563
   0.06580225  0.49335845  0.14191538
   0.31614530  0.54254584  0.02822686
   0.43914092  0.65545911  0.02712847
   0.44011755  0.36155959  0.13003869
   0.32923690  0.48645349  0.13495034
   0.56324189  0.54285835  0.02718309
   0.69007779  0.65357015  0.03284729
   0.68763554  0.38096724  0.14677937
   0.55421439  0.48379226  0.13308087
   0.81427178  0.53907139  0.03435701
   0.93951742  0.65234644  0.03440484
   0.94037464  0.38014570  0.14575276
   0.81419896  0.49235594  0.14207123
   0.06374420  0.87401949  0.04008347
   0.18835127  0.98686230  0.04040687
   0.19007230  0.70081202  0.13898893
   0.06477749  0.81294502  0.14469752
   0.31434102  0.87531101  0.03917685
   0.44001050  0.98722412  0.04066271
   0.43686018  0.70396015  0.13704966
   0.31241841  0.81628411  0.14445834
   0.56431589  0.87388559  0.04071565
   0.69003212  0.98563529  0.04109261
   0.68845584  0.69944784  0.14072681
   0.56461362  0.81306517  0.14623485
   0.81510995  0.87350148  0.04015826
   0.93933444  0.98718140  0.04232427
   0.93926427  0.70107178  0.14177359
   0.81344466  0.81269864  0.14488226
   0.43564761  0.57046071  0.20749427
   0.33883651  0.61644308  0.27005255
   0.51045839  0.58540560  0.29485355
   0.50824984  0.47355085  0.27720843
   0.26831894  0.64902839  0.30208074
Direct configuration=     5
   0.06631312  0.20965373  0.04353300
   0.19259692  0.32084859  0.04289765
   0.19006658  0.04007235  0.14694602
   0.06537289  0.15346770  0.14920670
   0.31004747  0.19988412  0.03833467
   0.44023770  0.30555668  0.02544469
   0.43997201  0.04000511  0.14695707
   0.31528379  0.15291102  0.14620087
   0.57026971  0.19923042  0.03737907
   0.68886780  0.31923629  0.04072595
   0.68935183  0.04033415  0.14735279
   0.56437759  0.15327470  0.14564361
   0.81481979  0.20809616  0.04288996
   0.94011482  0.32072077  0.04121492
   0.93971094  0.04071593  0.14877006
   0.81426080  0.15357032  0.14898390
   0.06514710  0.53943511  0.03399704
   0.18945748  0.65372299  0.03145265
   0.19372915  0.38401685  0.14848817
   0.06578549  0.49335412  0.14194700
   0.31613629  0.54257764  0.02828127
   0.43911543  0.65548067  0.02716149
   0.44012446  0.36156123  0.13004419
   0.32924406  0.48655708  0.13511489
   0.56321027  0.54286713  0.02717625
   0.69004867  0.65359623  0.03289281
   0.68757331  0.38094676  0.14680931
   0.55428549  0.48368968  0.13303478
   0.81425272  0.53909444  0.03439807
   0.93950977  0.65236399  0.03444576
   0.94035193  0.38014046  0.14577040
   0.81418338  0.49239054  0.14208666
   0.06371382  0.87404361  0.04007717
   0.18834224  0.98688956  0.04039156
   0.19004877  0.70087517  0.13902825
   0.06474551  0.81302595  0.14469204
   0.31433773  0.87532624  0.03916091
   0.43999077  0.98725374  0.04064567
   0.43685559  0.70389019  0.13710552
   0.31236740  0.81635605  0.14447685
   0.56428306  0.87389860  0.04070334
   0.68999234  0.98565048  0.04108879
   0.68843797  0.69947968  0.14076621
   0.56463482  0.81312923  0.14624160
   0.81509669  0.87350444  0.04016257
   0.93930753  0.98720099  0.04231379
   0.93924946  0.70112171  0.14179319
   0.81340479  0.81273639  0.14488197
   0.43674945  0.57017887  0.20811089
   0.33823334  0.61673052  0.27075498
   0.51051246  0.58033248  0.29305329
   0.50857783  0.47857226  0.27742329
   0.26934652  0.64857984  0.30172850
Direct configuration=     6
   0.06632431  0.20964600  0.04353576
   0.19260345  0.32084027  0.04290202
   0.19007592  0.04006467  0.14695600
   0.06538211  0.15345906  0.14921390
   0.31005461  0.19988161  0.03834212
   0.44025648  0.30554397  0.02545998
   0.43997660  0.03999281  0.14696539
   0.31529418  0.15290662  0.14620811
   0.57028157  0.19921763  0.03738172
   0.68887526  0.31920881  0.04071671
   0.68935860  0.04032809  0.14736083
   0.56438044  0.15326695  0.14565231
   0.81482384  0.20807538  0.04289032
   0.94012368  0.32070713  0.04121066
   0.93972034  0.04070852  0.14877722
   0.81426899  0.15356230  0.14898890
   0.06515294  0.53942808  0.03397958
   0.18946500  0.65371416  0.03143272
   0.19374250  0.38403120  0.14848357
   0.06579163  0.49335570  0.14193542
   0.31613959  0.54256599  0.02826134
   0.43912477  0.65547277  0.02714940
   0.44012193  0.36156063  0.13004217
   0.32924144  0.48651913  0.13505461
   0.56322185  0.54286391  0.02717876
   0.69005933  0.65358668  0.03287614
   0.68759610  0.38095426  0.14679834
   0.55425944  0.48372726  0.13305166
   0.81425970  0.53908600  0.03438303
   0.93951257  0.65235756  0.03443077
   0.94036025  0.38014238  0.14576394
   0.81418909  0.49237787  0.14208101
   0.06372495  0.87403478  0.04007947
   0.18834555  0.98687957  0.04039717
   0.19005739  0.70085203  0.13901384
   0.06475723  0.81299630  0.14469405
   0.31433893  0.87532066  0.03916675
   0.43999800  0.98724289  0.04065191
   0.43685727  0.70391582  0.13708505
   0.31238609  0.81632969  0.14447007
   0.56429509  0.87389384  0.04070785
   0.69000691  0.98564491  0.04109019
   0.68844452  0.69946802  0.14075178
   0.56462706  0.81310576  0.14623913
   0.81510155  0.87350335  0.04016099
   0.93931739  0.98719381  0.04231763
   0.93925489  0.70110342  0.14178601
   0.81341940  0.81272256  0.14488208
   0.43634583  0.57028211  0.20788501
   0.33845429  0.61662523  0.27049767
   0.51049265  0.58219085  0.29371275
   0.50845768  0.47673284  0.27734458
   0.26897010  0.64874415  0.30185753
Direct configuration=     7
   0.06632204  0.20964757  0.04353520
   0.19260212  0.32084196  0.04290113
   0.19007402  0.04006623  0.14695397
   0.06538024  0.15346082  0.14921244
   0.31005315  0.19988212  0.03834060
   0.44025266  0.30554655  0.02545687
   0.43997567  0.03999531  0.14696370
   0.31529207  0.15290752  0.14620664
   0.57027916  0.19922022  0.03738118
   0.68887375  0.31921440  0.04071859
   0.68935723  0.04032932  0.14735919
   0.56437986  0.15326852  0.14565054
   0.81482302  0.20807960  0.04289024
   0.94012188  0.32070990  0.04121153
   0.93971843  0.04071002  0.14877576
   0.81426733  0.15356393  0.14898789
   0.06515175  0.53942951  0.03398312
   0.18946347  0.65371596  0.03143677
   0.19373978  0.38402829  0.14848451
   0.06579038  0.49335538  0.14193778
   0.31613892  0.54256836  0.02826539
   0.43912287  0.65547438  0.02715186
   0.44012245  0.36156075  0.13004258
   0.32924197  0.48652684  0.13506686
   0.56321950  0.54286457  0.02717825
   0.69005717  0.65358862  0.03287952
   0.68759147  0.38095274  0.14680057
   0.55426474  0.48371962  0.13304823
   0.81425828  0.53908771  0.03438608
   0.93951200  0.65235887  0.03443381
   0.94035856  0.38014199  0.14576525
   0.81418793  0.49238044  0.14208216
   0.06372269  0.87403657  0.04007901
   0.18834488  0.98688160  0.04039603
   0.19005564  0.70085674  0.13901677
   0.06475485  0.81300233  0.14469364
   0.31433869  0.87532179  0.03916556
   0.43999653  0.98724509  0.04065064
   0.43685693  0.70391061  0.13708921
   0.31238229  0.81633505  0.14447145
   0.56429264  0.87389480  0.04070693
   0.69000395  0.98564604  0.04108991
   0.68844319  0.69947039  0.14075471
   0.56462863  0.81311053  0.14623963
   0.81510056  0.87350357  0.04016131
   0.93931538  0.98719527  0.04231685
   0.93925378  0.70110714  0.14178747
   0.81341643  0.81272537  0.14488205
   0.43642787  0.57026113  0.20793092
   0.33840938  0.61664663  0.27054997
   0.51049668  0.58181312  0.29357871
   0.50848210  0.47710671  0.27736058
   0.26904661  0.64871075  0.30183130
Direct configuration=     8
   0.06635094  0.20964193  0.04355379
   0.19262179  0.32084282  0.04293153
   0.19009598  0.04002800  0.14696596
   0.06539861  0.15344221  0.14921809
   0.31006917  0.19987960  0.03837726
   0.44034862  0.30548879  0.02553027
   0.43997700  0.03994271  0.14696504
   0.31531922  0.15291402  0.14620897
   0.57033742  0.19914574  0.03739232
   0.68888397  0.31916564  0.04073252
   0.68938273  0.04029416  0.14735925
   0.56438680  0.15327450  0.14564367
   0.81482387  0.20800814  0.04290609
   0.94014589  0.32067163  0.04120850
   0.93974688  0.04068715  0.14878283
   0.81429165  0.15356465  0.14898249
   0.06516758  0.53939998  0.03394904
   0.18949741  0.65369256  0.03140072
   0.19379079  0.38405542  0.14847519
   0.06579960  0.49336406  0.14188937
   0.31613989  0.54252584  0.02817183
   0.43911110  0.65546517  0.02712880
   0.44007726  0.36149506  0.12998148
   0.32924065  0.48622255  0.13462647
   0.56323780  0.54283664  0.02722495
   0.69009300  0.65358069  0.03284556
   0.68772817  0.38096006  0.14674384
   0.55408749  0.48399125  0.13308776
   0.81428094  0.53906341  0.03435439
   0.93951439  0.65234853  0.03440589
   0.94037034  0.38014076  0.14574833
   0.81420517  0.49232522  0.14205460
   0.06376250  0.87400657  0.04009100
   0.18832463  0.98688047  0.04041088
   0.19008819  0.70080248  0.13896645
   0.06477744  0.81294345  0.14468198
   0.31431220  0.87531057  0.03920757
   0.44002119  0.98721745  0.04068476
   0.43672090  0.70416022  0.13690668
   0.31245964  0.81633101  0.14440898
   0.56433447  0.87385507  0.04074379
   0.69006883  0.98565109  0.04110559
   0.68845167  0.69941078  0.14069857
   0.56461040  0.81309396  0.14621919
   0.81510462  0.87348775  0.04016847
   0.93934105  0.98717931  0.04233824
   0.93926857  0.70106198  0.14176364
   0.81347972  0.81270812  0.14487271
   0.43544960  0.57000353  0.20816592
   0.33508242  0.61821982  0.27067878
   0.51135830  0.58250287  0.29481863
   0.50786469  0.47657897  0.27760311
   0.27144678  0.64756767  0.30104895
Direct configuration=     9
   0.06634243  0.20964359  0.04354831
   0.19261600  0.32084257  0.04292258
   0.19008951  0.04003926  0.14696243
   0.06539320  0.15344769  0.14921643
   0.31006445  0.19988034  0.03836646
   0.44032036  0.30550580  0.02550865
   0.43997661  0.03995820  0.14696465
   0.31531122  0.15291210  0.14620828
   0.57032026  0.19916768  0.03738904
   0.68888096  0.31918000  0.04072842
   0.68937522  0.04030452  0.14735924
   0.56438476  0.15327274  0.14564569
   0.81482362  0.20802919  0.04290142
   0.94013882  0.32068291  0.04120939
   0.93973850  0.04069389  0.14878075
   0.81428448  0.15356444  0.14898408
   0.06516292  0.53940868  0.03395908
   0.18948741  0.65369945  0.03141134
   0.19377577  0.38404743  0.14847794
   0.06579688  0.49336150  0.14190362
   0.31613960  0.54253836  0.02819939
   0.43911456  0.65546788  0.02713559
   0.44009057  0.36151441  0.12999948
   0.32924104  0.48631218  0.13475618
   0.56323241  0.54284486  0.02721120
   0.69008244  0.65358302  0.03285557
   0.68768790  0.38095790  0.14676055
   0.55413970  0.48391124  0.13307612
   0.81427426  0.53907057  0.03436372
   0.93951369  0.65235157  0.03441412
   0.94036687  0.38014112  0.14575332
   0.81420009  0.49234149  0.14206272
   0.06375078  0.87401541  0.04008747
   0.18833059  0.98688081  0.04040650
   0.19007860  0.70081846  0.13898127
   0.06477079  0.81296080  0.14468542
   0.31432000  0.87531387  0.03919520
   0.44001393  0.98722559  0.04067471
   0.43676097  0.70408670  0.13696044
   0.31243686  0.81633220  0.14442738
   0.56432215  0.87386677  0.04073294
   0.69004972  0.98564960  0.04110097
   0.68844917  0.69942834  0.14071510
   0.56461577  0.81309884  0.14622521
   0.81510343  0.87349241  0.04016636
   0.93933349  0.98718401  0.04233194
   0.93926421  0.70107528  0.14177066
   0.81346108  0.81271320  0.14487546
   0.43573774  0.57007940  0.20809670
   0.33606235  0.61775645  0.27064084
   0.51110452  0.58229971  0.29445342
   0.50804654  0.47673441  0.27753167
   0.27073983  0.64790436  0.30127939
Direct configuration=    10
   0.06636945  0.20963693  0.04356525
   0.19262907  0.32083990  0.04295593
   0.19011160  0.04000141  0.14697081
   0.06541157  0.15342845  0.14922072
   0.31008111  0.19987865  0.03840229
   0.44042431  0.30543534  0.02557527
   0.43997665  0.03990799  0.14696447
   0.31533724  0.15291799  0.14621169
   0.57038528  0.19908570  0.03739733
   0.68888576  0.31913713  0.04074070
   0.68940067  0.04027142  0.14735802
   0.56439091  0.15327616  0.14563756
   0.81482294  0.20796314  0.04291860
   0.94016094  0.32064469  0.04120754
   0.93976598  0.04067249  0.14878774
   0.81430902  0.15356329  0.14897982
   0.06517575  0.53937979  0.03392576
   0.18952104  0.65367024  0.03138228
   0.19382876  0.38406849  0.14846097
   0.06580502  0.49336420  0.14185359
   0.31614109  0.54249758  0.02808486
   0.43909738  0.65546184  0.02710622
   0.44005258  0.36144544  0.12993499
   0.32926608  0.48600030  0.13433315
   0.56324668  0.54282515  0.02726259
   0.69011787  0.65357758  0.03281980
   0.68781260  0.38097588  0.14671396
   0.55390091  0.48420306  0.13315434
   0.81429790  0.53904636  0.03433396
   0.93951617  0.65234189  0.03438732
   0.94037828  0.38013917  0.14573718
   0.81422099  0.49228905  0.14203312
   0.06379059  0.87398886  0.04009831
   0.18830456  0.98688667  0.04041759
   0.19011638  0.70077843  0.13892583
   0.06479040  0.81290374  0.14467140
   0.31428466  0.87531569  0.03923792
   0.44003888  0.98719297  0.04070842
   0.43660246  0.70425734  0.13680934
   0.31250612  0.81635798  0.14435424
   0.56436731  0.87382920  0.04076960
   0.69011571  0.98565418  0.04111608
   0.68845648  0.69936869  0.14066054
   0.56459981  0.81308665  0.14620584
   0.81510860  0.87347527  0.04017363
   0.93935777  0.98716621  0.04235269
   0.93927965  0.70103122  0.14174681
   0.81352252  0.81269603  0.14486660
   0.43491638  0.56991327  0.20856711
   0.33601115  0.61774717  0.26911258
   0.51195616  0.58222415  0.29539907
   0.50733518  0.47696530  0.27788445
   0.26991550  0.64826771  0.30206616
Direct configuration=    11
   0.06639139  0.20963152  0.04357902
   0.19263969  0.32083773  0.04298301
   0.19012953  0.03997068  0.14697763
   0.06542649  0.15341282  0.14922421
   0.31009465  0.19987728  0.03843138
   0.44050874  0.30537811  0.02562937
   0.43997669  0.03986721  0.14696432
   0.31535837  0.15292277  0.14621446
   0.57043810  0.19901911  0.03740406
   0.68888965  0.31910231  0.04075067
   0.68942134  0.04024453  0.14735704
   0.56439590  0.15327894  0.14563095
   0.81482239  0.20790950  0.04293255
   0.94017890  0.32061366  0.04120603
   0.93978830  0.04065511  0.14879341
   0.81432894  0.15356236  0.14897635
   0.06518618  0.53935633  0.03389869
   0.18954836  0.65364652  0.03135868
   0.19387181  0.38408560  0.14844719
   0.06581163  0.49336639  0.14181296
   0.31614231  0.54246445  0.02799183
   0.43908343  0.65545694  0.02708236
   0.44002172  0.36138943  0.12988262
   0.32928643  0.48574698  0.13398955
   0.56325827  0.54280913  0.02730433
   0.69014665  0.65357315  0.03279074
   0.68791389  0.38099048  0.14667611
   0.55370696  0.48444008  0.13321787
   0.81431710  0.53902670  0.03430979
   0.93951819  0.65233403  0.03436555
   0.94038755  0.38013759  0.14572406
   0.81423796  0.49224645  0.14200907
   0.06382292  0.87396730  0.04010711
   0.18828342  0.98689143  0.04042659
   0.19014707  0.70074592  0.13888079
   0.06480634  0.81285739  0.14466001
   0.31425595  0.87531716  0.03927262
   0.44005914  0.98716648  0.04073580
   0.43647371  0.70439593  0.13668661
   0.31256237  0.81637892  0.14429484
   0.56440398  0.87379869  0.04079938
   0.69016930  0.98565790  0.04112835
   0.68846241  0.69932025  0.14061622
   0.56458685  0.81307674  0.14619011
   0.81511281  0.87346135  0.04017954
   0.93937749  0.98715175  0.04236953
   0.93929219  0.70099542  0.14172745
   0.81357242  0.81268209  0.14485940
   0.43424925  0.56977833  0.20894920
   0.33596956  0.61773963  0.26787128
   0.51264789  0.58216278  0.29616715
   0.50675738  0.47715283  0.27817099
   0.26924595  0.64856284  0.30270521
Direct configuration=    12
   0.06642180  0.20961884  0.04359313
   0.19263920  0.32082546  0.04301951
   0.19015380  0.03993545  0.14698655
   0.06544952  0.15338841  0.14923000
   0.31011498  0.19987913  0.03846773
   0.44063571  0.30528009  0.02567842
   0.43997762  0.03982149  0.14696708
   0.31538493  0.15291989  0.14622252
   0.57051769  0.19892116  0.03741010
   0.68889581  0.31906149  0.04076006
   0.68944815  0.04021825  0.14735964
   0.56440425  0.15326578  0.14562178
   0.81481995  0.20784775  0.04294810
   0.94019655  0.32056809  0.04120199
   0.93981904  0.04063296  0.14880293
   0.81435793  0.15355396  0.14897739
   0.06519749  0.53932628  0.03385736
   0.18957228  0.65361288  0.03132406
   0.19392988  0.38409297  0.14841678
   0.06582399  0.49337176  0.14176165
   0.31614454  0.54242971  0.02782502
   0.43906927  0.65545081  0.02704724
   0.44001011  0.36132216  0.12981814
   0.32928801  0.48536721  0.13358047
   0.56326937  0.54280070  0.02736559
   0.69018447  0.65356445  0.03274491
   0.68798816  0.38103735  0.14663086
   0.55352898  0.48467208  0.13331036
   0.81434575  0.53899918  0.03427722
   0.93952404  0.65232447  0.03433329
   0.94040568  0.38012600  0.14570695
   0.81427087  0.49220399  0.14197259
   0.06386224  0.87394026  0.04011610
   0.18825236  0.98689918  0.04043581
   0.19019716  0.70071214  0.13882511
   0.06482729  0.81279793  0.14464181
   0.31421552  0.87533796  0.03930382
   0.44008886  0.98712457  0.04076690
   0.43630762  0.70451020  0.13654329
   0.31259666  0.81644192  0.14422570
   0.56445826  0.87376776  0.04083327
   0.69023809  0.98565565  0.04114110
   0.68847323  0.69926410  0.14055899
   0.56457566  0.81305721  0.14617738
   0.81512527  0.87343987  0.04018587
   0.93940408  0.98712816  0.04238898
   0.93931268  0.70094307  0.14170226
   0.81363243  0.81265756  0.14485250
   0.43381314  0.56969491  0.20955314
   0.33354612  0.61873727  0.26731985
   0.51360759  0.58161522  0.29690527
   0.50585169  0.47777106  0.27866297
   0.27030162  0.64807473  0.30256407
Direct configuration=    13
   0.06643905  0.20961165  0.04360113
   0.19263892  0.32081850  0.04304020
   0.19016756  0.03991548  0.14699161
   0.06546259  0.15337457  0.14923329
   0.31012652  0.19988019  0.03848834
   0.44070772  0.30522451  0.02570623
   0.43997815  0.03979555  0.14696864
   0.31539999  0.15291826  0.14622708
   0.57056283  0.19886561  0.03741352
   0.68889930  0.31903833  0.04076538
   0.68946335  0.04020335  0.14736112
   0.56440898  0.15325832  0.14561659
   0.81481856  0.20781273  0.04295692
   0.94020656  0.32054225  0.04119970
   0.93983648  0.04062040  0.14880833
   0.81437436  0.15354919  0.14897797
   0.06520391  0.53930924  0.03383392
   0.18958585  0.65359380  0.03130443
   0.19396282  0.38409715  0.14839953
   0.06583101  0.49337480  0.14173256
   0.31614581  0.54241001  0.02773042
   0.43906125  0.65544734  0.02702733
   0.44000352  0.36128401  0.12978158
   0.32928890  0.48515184  0.13334846
   0.56327566  0.54279592  0.02740033
   0.69020592  0.65355951  0.03271892
   0.68803029  0.38106393  0.14660520
   0.55342804  0.48480366  0.13336282
   0.81436200  0.53898358  0.03425874
   0.93952736  0.65231904  0.03431499
   0.94041596  0.38011943  0.14569724
   0.81428953  0.49217991  0.14195190
   0.06388454  0.87392492  0.04012119
   0.18823475  0.98690358  0.04044104
   0.19022557  0.70069298  0.13879353
   0.06483917  0.81276421  0.14463149
   0.31419259  0.87534976  0.03932151
   0.44010572  0.98710080  0.04078453
   0.43621342  0.70457501  0.13646201
   0.31261610  0.81647765  0.14418649
   0.56448904  0.87375021  0.04085248
   0.69027710  0.98565438  0.04114833
   0.68847936  0.69923225  0.14052653
   0.56456931  0.81304612  0.14617016
   0.81513233  0.87342769  0.04018947
   0.93941916  0.98711478  0.04240002
   0.93932430  0.70091338  0.14168797
   0.81366646  0.81264364  0.14484859
   0.43356582  0.56964761  0.20989565
   0.33217174  0.61930306  0.26700713
   0.51415185  0.58130469  0.29732387
   0.50533805  0.47812168  0.27894198
   0.27090031  0.64779791  0.30248403
Direct configuration=    14
   0.06647035  0.20958428  0.04360495
   0.19261785  0.32078186  0.04307307
   0.19019615  0.03989018  0.14700288
   0.06549309  0.15334081  0.14924504
   0.31015326  0.19988468  0.03851920
   0.44085202  0.30509431  0.02571457
   0.43998305  0.03976209  0.14698161
   0.31542703  0.15289864  0.14624791
   0.57065915  0.19875351  0.03741068
   0.68890423  0.31899650  0.04075905
   0.68949151  0.04019108  0.14737671
   0.56442122  0.15321420  0.14561555
   0.81481585  0.20776845  0.04296671
   0.94021700  0.32048859  0.04119139
   0.93987001  0.04059869  0.14882483
   0.81440900  0.15352607  0.14899280
   0.06520856  0.53928066  0.03377880
   0.18959377  0.65354979  0.03126212
   0.19401994  0.38407753  0.14834821
   0.06585153  0.49337682  0.14168347
   0.31615405  0.54238371  0.02750339
   0.43905686  0.65544314  0.02697839
   0.44005368  0.36123282  0.12973820
   0.32931798  0.48479533  0.13309379
   0.56328131  0.54281580  0.02746724
   0.69024383  0.65354373  0.03265657
   0.68801439  0.38114612  0.14657809
   0.55331405  0.48493444  0.13351259
   0.81439754  0.53895019  0.03421922
   0.93953964  0.65230720  0.03427281
   0.94044642  0.38009559  0.14567967
   0.81433592  0.49216160  0.14190978
   0.06391726  0.87390315  0.04012479
   0.18820211  0.98691347  0.04044518
   0.19028931  0.70068642  0.13873656
   0.06486092  0.81269507  0.14461337
   0.31414879  0.87540304  0.03932833
   0.44014154  0.98704801  0.04080531
   0.43608445  0.70451107  0.13641124
   0.31259705  0.81658354  0.14412638
   0.56455605  0.87373868  0.04087480
   0.69034144  0.98564045  0.04115175
   0.68849432  0.69919389  0.14047438
   0.56455434  0.81299868  0.14616641
   0.81515830  0.87340502  0.04019057
   0.93944674  0.98708140  0.04241167
   0.93935057  0.70085365  0.14166331
   0.81371141  0.81260218  0.14484768
   0.43342039  0.56991572  0.21043493
   0.33118437  0.61950294  0.26565558
   0.51495331  0.58068019  0.29778733
   0.50422996  0.47867349  0.27959346
   0.27030992  0.64808551  0.30322748
Direct configuration=    15
   0.06648923  0.20956777  0.04360725
   0.19260515  0.32075976  0.04309290
   0.19021339  0.03987493  0.14700969
   0.06551149  0.15332045  0.14925213
   0.31016939  0.19988739  0.03853782
   0.44093905  0.30501578  0.02571960
   0.43998601  0.03974191  0.14698943
   0.31544333  0.15288681  0.14626047
   0.57071725  0.19868591  0.03740896
   0.68890721  0.31897127  0.04075524
   0.68950850  0.04018368  0.14738612
   0.56442860  0.15318760  0.14561492
   0.81481422  0.20774174  0.04297261
   0.94022330  0.32045623  0.04118638
   0.93989022  0.04058560  0.14883478
   0.81442989  0.15351213  0.14900174
   0.06521137  0.53926343  0.03374556
   0.18959854  0.65352325  0.03123660
   0.19405439  0.38406570  0.14831726
   0.06586391  0.49337803  0.14165386
   0.31615901  0.54236784  0.02736646
   0.43905421  0.65544061  0.02694887
   0.44008393  0.36120195  0.12971204
   0.32933551  0.48458031  0.13294019
   0.56328471  0.54282778  0.02750760
   0.69026670  0.65353421  0.03261897
   0.68800480  0.38119570  0.14656175
   0.55324530  0.48501332  0.13360292
   0.81441898  0.53893005  0.03419539
   0.93954704  0.65230005  0.03424737
   0.94046478  0.38008122  0.14566907