 vasp.6.4.1 05Apr23 (build Apr 10 2023 21:44:22) complex                        
  
 executed on             LinuxIFC date 2023.07.12  08:28:05
 running   32 mpi-ranks, on    1 nodes
 distrk:  each k-point on   32 cores,    1 groups
 distr:  one band on NCORE=   4 cores,    8 groups


--------------------------------------------------------------------------------------------------------


 INCAR:
   NCORE = 8
   NPAR = 8
   SYSTEM = KAIST-INCAR
   LWAVE = .FALSE.
   LCHARG = .FALSE.
   LVTOT = .FALSE.
   ISTART = 1
   SIGMA = 0.05
   ICHARG = 2
   IBRION = 2
   POTIM = 0.2
   ISIF = 2
   NSW = 4000
   NELM = 4000
   NELMIN = 6
   ISYM = 0
   ISPIN = 2
   IDIPOL = 3
   LMAXMIX = 4
   ADDGRID = .TRUE.
   ALGO = Fast
   NELMDL = -20
   ISMEAR = 0
   AMIX = 0.2
   BMIX = 0.00001
   AMIX_MAG = 0.8
   BMIX_MAG = 0.00001
   LREAL = Auto
   PREC = Accurate
   EDIFF = 1E-05
   EDIFFG = -0.02
   ENCUT = 400.0
   GGA = PE
   IVDW = 11
   LORBIT = 11
   MAGMOM = 67*0.0 4*0.0 1*5.0 2*0.0 1*0.0

 POTCAR:    PAW_PBE C 08Apr2002                   
 POTCAR:    PAW_PBE N 08Apr2002                   
 POTCAR:    PAW_PBE Ni 02Aug2007                  
 POTCAR:    PAW_PBE O 08Apr2002                   
 POTCAR:    PAW_PBE H 15Jun2001                   
 -----------------------------------------------------------------------------
|                                                                             |
|           W    W    AA    RRRRR   N    N  II  N    N   GGGG   !!!           |
|           W    W   A  A   R    R  NN   N  II  NN   N  G    G  !!!           |
|           W    W  A    A  R    R  N N  N  II  N N  N  G       !!!           |
|           W WW W  AAAAAA  RRRRR   N  N N  II  N  N N  G  GGG   !            |
|           WW  WW  A    A  R   R   N   NN  II  N   NN  G    G                |
|           W    W  A    A  R    R  N    N  II  N    N   GGGG   !!!           |
|                                                                             |
|     The value NCORE = 8 specified in the INCAR file was overwritten,        |
|     because it was not compatible with the 32 processes available:          |
|     NCORE = 4                                                               |
|     was used instead, please check that this makes sense for your           |
|     machine.                                                                |
|                                                                             |
 -----------------------------------------------------------------------------

 POTCAR:    PAW_PBE C 08Apr2002                   
   SHA256 =  253f7b50bb8d59471dbedb8285d89021f4a42ed1a2c5d38a03a736e69125dd95 C/POTCAR              
   COPYR  = (c) Copyright 08Apr2002 Georg Kresse                                                    
   COPYR  = This file is part of the software VASP. Any use, copying, and all other rights are regul
   COPYR  = If you do not have a valid VASP license, you may not use, copy or distribute this file. 
   VRHFIN =C: s2p2                                                                                  
   LEXCH  = PE                                                                                      
   EATOM  =   147.1560 eV,   10.8157 Ry                                                             
                                                                                                    
   TITEL  = PAW_PBE C 08Apr2002                                                                     
   LULTRA =        F    use ultrasoft PP ?                                                          
   IUNSCR =        1    unscreen: 0-lin 1-nonlin 2-no                                               
   RPACOR =    1.200    partial core radius                                                         
   POMASS =   12.011; ZVAL   =    4.000    mass and valenz                                          
   RCORE  =    1.500    outmost cutoff radius                                                       
   RWIGS  =    1.630; RWIGS  =    0.863    wigner-seitz radius (au A)                               
   ENMAX  =  400.000; ENMIN  =  300.000 eV                                                          
   ICORE  =        2    local potential                                                             
   LCOR   =        T    correct aug charges                                                         
   LPAW   =        T    paw PP                                                                      
   EAUG   =  644.873                                                                                
   DEXC   =    0.000                                                                                
   RMAX   =    1.529    core radius for proj-oper                                                   
   RAUG   =    1.300    factor for augmentation sphere                                              
   RDEP   =    1.501    radius for radial grids                                                     
   RDEPT  =    1.300    core radius for aug-charge                                                  
                                                                                                    
   Atomic configuration                                                                             
    4 entries                                                                                       
     n  l   j            E        occ.                                                              
     1  0  0.50      -273.3789   2.0000                                                             
     2  0  0.50       -13.7508   2.0000                                                             
     2  1  0.50        -5.2854   2.0000                                                             
     3  2  1.50        -5.4423   0.0000                                                             
   Description                                                                                      
     l       E           TYP  RCUT    TYP  RCUT                                                     
     0    -13.7508458     23  1.200                                                                 
     0     -8.2022199     23  1.200                                                                 
     1     -5.2854383     23  1.500                                                                 
     1     34.0145650     23  1.500                                                                 
     2     -5.4423304      7  1.500                                                                 
  local pseudopotential read in
  partial core-charges read in
  partial kinetic energy density read in
  atomic valenz-charges read in
  non local Contribution for L=           0  read in
    real space projection operators read in
  non local Contribution for L=           0  read in
    real space projection operators read in
  non local Contribution for L=           1  read in
    real space projection operators read in
  non local Contribution for L=           1  read in
    real space projection operators read in
    PAW grid and wavefunctions read in
 
   number of l-projection  operators is LMAX  =           4
   number of lm-projection operators is LMMAX =           8
 
 

 

 k-point    24 :       0.0000   -0.3750    0.0000
  band No.  band energies     occupation 
      1     -25.7084      1.00000
      2     -23.5596      1.00000
      3     -22.9229      1.00000
      4     -22.6280      1.00000
      5     -22.3010      1.00000
      6     -21.9400      1.00000
      7     -21.4133      1.00000
      8     -21.2216      1.00000
      9     -20.9777      1.00000
     10     -20.7389      1.00000
     11     -20.5808      1.00000
     12     -20.3963      1.00000
     13     -20.1413      1.00000
     14     -20.0329      1.00000
     15     -19.7230      1.00000
     16     -19.6533      1.00000
     17     -19.3986      1.00000
     18     -19.3123      1.00000
     19     -19.0248      1.00000
     20     -18.7827      1.00000
     21     -18.6774      1.00000
     22     -18.4032      1.00000
     23     -18.3475      1.00000
     24     -18.2498      1.00000
     25     -18.0585      1.00000
     26     -17.8096      1.00000
     27     -17.6939      1.00000
     28     -17.3738      1.00000
     29     -17.2364      1.00000
     30     -17.1290      1.00000
     31     -16.9670      1.00000
     32     -16.8942      1.00000
     33     -16.7486      1.00000
     34     -16.3884      1.00000
     35     -16.2968      1.00000
     36     -16.1525      1.00000
     37     -15.9179      1.00000
     38     -15.4831      1.00000
     39     -15.1862      1.00000
     40     -15.0679      1.00000
     41     -14.9890      1.00000
     42     -14.8687      1.00000
     43     -14.6750      1.00000
     44     -14.6438      1.00000
     45     -14.5507      1.00000
     46     -14.3422      1.00000
     47     -14.2460      1.00000
     48     -14.0168      1.00000
     49     -13.7184      1.00000
     50     -13.6101      1.00000
     51     -13.4448      1.00000
     52     -13.2635      1.00000
     53     -13.2019      1.00000
     54     -13.0061      1.00000
     55     -12.8861      1.00000
     56     -12.5944      1.00000
     57     -12.4931      1.00000
     58     -12.3083      1.00000
     59     -12.2174      1.00000
     60     -12.0334      1.00000
     61     -11.8258      1.00000
     62     -11.5770      1.00000
     63     -11.4646      1.00000
     64     -11.3866      1.00000
     65     -11.2807      1.00000
     66     -11.1670      1.00000
     67     -11.0153      1.00000
     68     -10.8934      1.00000
     69     -10.8472      1.00000
     70     -10.7073      1.00000
     71     -10.5996      1.00000
     72     -10.3574      1.00000
     73     -10.2055      1.00000
     74     -10.0734      1.00000
     75     -10.0036      1.00000
     76      -9.9605      1.00000
     77      -9.8570      1.00000
     78      -9.7827      1.00000
     79      -9.6766      1.00000
     80      -9.6674      1.00000
     81      -9.5232      1.00000
     82      -9.4168      1.00000
     83      -9.3800      1.00000
     84      -9.3483      1.00000
     85      -9.2771      1.00000
     86      -9.2164      1.00000
     87      -9.1858      1.00000
     88      -9.1380      1.00000
     89      -9.0863      1.00000
     90      -8.9737      1.00000
     91      -8.9458      1.00000
     92      -8.8559      1.00000
     93      -8.7979      1.00000
     94      -8.7374      1.00000
     95      -8.7136      1.00000
     96      -8.6583      1.00000
     97      -8.6393      1.00000
     98      -8.6079      1.00000
     99      -8.4903      1.00000
    100      -8.4689      1.00000
    101      -8.4265      1.00000
    102      -8.3607      1.00000
    103      -8.3382      1.00000
    104      -8.2654      1.00000
    105      -8.2492      1.00000
    106      -8.1442      1.00000
    107      -8.0068      1.00000
    108      -7.9589      1.00000
    109      -7.7015      1.00000
    110      -7.6435      1.00000
    111      -7.6054      1.00000
    112      -7.5853      1.00000
    113      -7.4923      1.00000
    114      -7.4806      1.00000
    115      -7.3831      1.00000
    116      -7.3208      1.00000
    117      -7.2875      1.00000
    118      -7.2094      1.00000
    119      -7.0186      1.00000
    120      -6.9632      1.00000
    121      -6.8628      1.00000
    122      -6.7994      1.00000
    123      -6.7241      1.00000
    124      -6.6721      1.00000
    125      -6.4772      1.00000
    126      -6.4124      1.00000
    127      -6.3298      1.00000
    128      -6.1768      1.00000
    129      -6.1668      1.00000
    130      -6.0173      1.00000
    131      -5.9357      1.00000
    132      -5.8995      1.00000
    133      -5.8507      1.00000
    134      -5.8383      1.00000
    135      -5.8034      1.00000
    136      -5.5752      1.00000
    137      -5.5538      1.00000
    138      -5.5376      1.00000
    139      -5.3140      1.00000
    140      -5.1729      1.00000
    141      -4.9408      1.00000
    142      -4.8750      1.00000
    143      -4.8026      1.00000
    144      -4.7294      1.00000
    145      -4.6981      1.00000
    146      -4.6527      1.00000
    147      -4.5987      1.00000
    148      -4.3924      1.00000
    149      -4.2970      1.00000
    150      -4.0415      1.00000
    151      -3.9632      1.00000
    152      -3.8795      1.00000
    153      -3.5227      1.00000
    154      -3.2497      1.00000
    155      -2.7035      1.00000
    156      -1.8391      0.61496
    157      -1.5891      0.00000
    158      -1.3740      0.00000
    159      -1.1042      0.00000
    160      -0.8292      0.00000
    161      -0.7381      0.00000
    162      -0.5985      0.00000
    163      -0.5114      0.00000
    164      -0.2690      0.00000
    165      -0.2298      0.00000
    166      -0.1222      0.00000
    167       0.2619      0.00000
    168       0.3474      0.00000
    169       0.6362      0.00000
    170       0.9045      0.00000
    171       0.9913      0.00000
    172       1.0643      0.00000
    173       1.1893      0.00000
    174       1.3639      0.00000
    175       1.4097      0.00000
    176       1.5500      0.00000
    177       1.5756      0.00000
    178       1.6731      0.00000
    179       1.6939      0.00000
    180       1.7750      0.00000
    181       1.9075      0.00000
    182       2.2035      0.00000
    183       2.2246      0.00000
    184       2.3642      0.00000
    185       2.4349      0.00000
    186       2.5125      0.00000
    187       2.5899      0.00000
    188       2.6251      0.00000
    189       2.6497      0.00000
    190       2.7476      0.00000
    191       2.7957      0.00000
    192       2.8662      0.00000
    193       2.9032      0.00000
    194       2.9357      0.00000
    195       3.0617      0.00000
    196       3.1338      0.00000
    197       3.1594      0.00000
    198       3.2390      0.00000
    199       3.3174      0.00000
    200       3.4183      0.00000


--------------------------------------------------------------------------------------------------------


 soft charge-density along one line, spin component           1
         0         1         2         3         4         5         6         7         8         9
 total charge-density along one line
 
 soft charge-density along one line, spin component           2
         0         1         2         3         4         5         6         7         8         9
 total charge-density along one line
 
 pseudopotential strength for first ion, spin component:           1
 10.184  13.542   0.000  -0.000  -0.000   0.000   0.000  -0.000
 13.542  18.007   0.000  -0.000  -0.000   0.000   0.000  -0.000
  0.000   0.000  -4.321   0.000   0.000   8.453  -0.000   0.000
 -0.000  -0.000   0.000  -4.313   0.000  -0.000   8.443  -0.000
 -0.000  -0.000   0.000   0.000  -4.321   0.000  -0.000   8.452
  0.000   0.000   8.453  -0.000   0.000 -18.671   0.000  -0.000
  0.000   0.000  -0.000   8.443  -0.000   0.000 -18.661  -0.000
 -0.000  -0.000   0.000  -0.000   8.452  -0.000  -0.000 -18.669
 pseudopotential strength for first ion, spin component:           2
 10.184  13.543   0.000  -0.000  -0.000  -0.000   0.000  -0.000
 13.543  18.008   0.000  -0.000  -0.000  -0.000   0.000  -0.000
  0.000   0.000  -4.321   0.000   0.000   8.453  -0.000   0.000
 -0.000  -0.000   0.000  -4.314   0.000  -0.000   8.443  -0.000
 -0.000  -0.000   0.000   0.000  -4.321   0.000  -0.000   8.452
 -0.000  -0.000   8.453  -0.000   0.000 -18.671   0.000  -0.000
  0.000   0.000  -0.000   8.443  -0.000   0.000 -18.661  -0.000
 -0.000  -0.000   0.000  -0.000   8.452  -0.000  -0.000 -18.669
 total augmentation occupancy for first ion, spin component:           1
  8.182  -3.638  -0.034  -0.001   0.028  -0.005  -0.000   0.004
 -3.638   1.672   0.019   0.001  -0.015   0.003   0.000  -0.002
 -0.034   0.019   1.810  -0.003  -0.009   0.171  -0.000  -0.000
 -0.001   0.001  -0.003   1.209  -0.002  -0.000   0.077  -0.000
  0.028  -0.015  -0.009  -0.002   1.826  -0.000  -0.000   0.171
 -0.005   0.003   0.171  -0.000  -0.000   0.017  -0.000  -0.000
 -0.000   0.000  -0.000   0.077  -0.000  -0.000   0.005  -0.000
  0.004  -0.002  -0.000  -0.000   0.171  -0.000  -0.000   0.017
 total augmentation occupancy for first ion, spin component:           2
 -0.000   0.000   0.000   0.000   0.000   0.000   0.000   0.000
  0.000  -0.000  -0.000  -0.000  -0.000  -0.000  -0.000  -0.000
  0.000  -0.000  -0.000  -0.000  -0.000   0.000   0.000   0.000
  0.000  -0.000  -0.000  -0.001   0.000   0.000  -0.000  -0.000
  0.000  -0.000  -0.000   0.000  -0.000   0.000  -0.000  -0.000
  0.000  -0.000   0.000   0.000   0.000   0.000   0.000   0.000
  0.000  -0.000   0.000  -0.000  -0.000   0.000   0.000  -0.000
  0.000  -0.000   0.000  -0.000  -0.000   0.000  -0.000  -0.000


------------------------ aborting loop because EDIFF is reached ----------------------------------------



 DIPCOR: dipole corrections for dipol
 direction  3 min pos   129,
 dipolmoment           0.000000      0.000000      0.039476 electrons x Angstroem
 Tr[quadrupol]    -12547.605119

 energy correction for charged system         0.000000 eV
 dipol+quadrupol energy correction            0.000053 eV
 added-field ion interaction          0.000000 eV  (added to PSCEN)

 
  *************** adding dipol energy to TOTEN NOW **************** 



 total charge

# of ion       s       p       d       tot
------------------------------------------
    1        0.864   1.782   0.000   2.646
    2        0.863   1.781   0.000   2.645
    3        0.867   1.797   0.000   2.663
    4        0.869   1.796   0.000   2.665
    5        0.869   1.803   0.000   2.673
    6        0.869   1.810   0.000   2.679
    7        0.869   1.801   0.000   2.670
    8        0.869   1.803   0.000   2.673
    9        0.867   1.798   0.000   2.665
   10        0.867   1.794   0.000   2.661
   11        0.866   1.787   0.000   2.653
   12        0.864   1.783   0.000   2.647
   13        0.863   1.782   0.000   2.645
   14        0.858   1.758   0.000   2.616
   15        0.864   1.784   0.000   2.648
   16        0.852   1.738   0.000   2.590
   17        0.872   1.816   0.000   2.688
   18        0.866   1.788   0.000   2.654
   19        0.869   1.810   0.000   2.679
   20        0.872   1.816   0.000   2.688
   21        0.867   1.798   0.000   2.665
   22        0.867   1.797   0.000   2.663
   23        0.866   1.790   0.000   2.656
   24        0.864   1.783   0.000   2.647
   25        0.863   1.782   0.000   2.645
   26        0.863   1.781   0.000   2.645
   27        0.853   1.765   0.000   2.618
   28        0.852   1.738   0.000   2.590
   29        0.866   1.788   0.000   2.654
   30        0.869   1.796   0.000   2.665
   31        0.864   1.784   0.000   2.648
   32        0.866   1.787   0.000   2.653
   33        0.864   1.782   0.000   2.646
   34        0.864   1.782   0.000   2.646
   35        0.866   1.787   0.000   2.653
   36        0.864   1.784   0.000   2.647
   37        0.869   1.796   0.000   2.665
   38        0.866   1.790   0.000   2.656
   39        0.852   1.738   0.000   2.590
   40        0.853   1.765   0.000   2.618
   41        0.863   1.781   0.000   2.645
   42        0.863   1.782   0.000   2.645
   43        0.864   1.783   0.000   2.647
   44        0.866   1.790   0.000   2.656
   45        0.866   1.797   0.000   2.663
   46        0.867   1.798   0.000   2.665
   47        0.872   1.816   0.000   2.688
   48        0.869   1.810   0.000   2.679
   49        0.866   1.790   0.000   2.656
   50        0.872   1.816   0.000   2.688
   51        0.852   1.737   0.000   2.589
   52        0.863   1.783   0.000   2.647
   53        0.858   1.758   0.000   2.616
   54        0.863   1.782   0.000   2.645
   55        0.864   1.783   0.000   2.647
   56        0.866   1.787   0.000   2.653
   57        0.867   1.794   0.000   2.661
   58        0.867   1.798   0.000   2.665
   59        0.869   1.803   0.000   2.673
   60        0.869   1.801   0.000   2.670
   61        0.869   1.810   0.000   2.679
   62        0.869   1.803   0.000   2.673
   63        0.869   1.796   0.000   2.665
   64        0.866   1.797   0.000   2.663
   65        0.863   1.781   0.000   2.644
   66        0.864   1.782   0.000   2.646
   67        0.883   1.621   0.000   2.503
   68        1.243   2.606   0.000   3.849
   69        1.243   2.607   0.000   3.850
   70        1.242   2.606   0.000   3.849
   71        1.242   2.605   0.000   3.847
   72        0.510   0.744   8.306   9.560
   73        1.622   3.541   0.000   5.163
   74        1.603   3.588   0.000   5.191
   75        0.606   0.105   0.000   0.711
--------------------------------------------------
tot         67.280 138.021   8.306 213.607



 magnetization (x)

# of ion       s       p       d       tot
------------------------------------------
    1       -0.000  -0.001   0.000  -0.001
    2       -0.000  -0.000   0.000  -0.000
    3        0.000  -0.000   0.000  -0.000
    4       -0.000  -0.001   0.000  -0.001
    5       -0.000  -0.000   0.000  -0.000
    6       -0.000   0.000   0.000   0.000
    7       -0.000  -0.001   0.000  -0.001
    8       -0.000  -0.000   0.000  -0.000
    9        0.000   0.001   0.000   0.001
   10       -0.000  -0.001   0.000  -0.001
   11       -0.000  -0.000   0.000  -0.000
   12       -0.000  -0.000   0.000  -0.000
   13        0.000   0.000   0.000   0.000
   14       -0.000  -0.001   0.000  -0.001
   15       -0.000  -0.001   0.000  -0.002
   16       -0.000  -0.002   0.000  -0.003
   17       -0.000  -0.002   0.000  -0.002
   18        0.000   0.002   0.000   0.002
   19       -0.000   0.000   0.000   0.000
   20       -0.000  -0.002   0.000  -0.002
   21        0.000   0.001   0.000   0.001
   22        0.000  -0.000   0.000  -0.000
   23       -0.000  -0.000   0.000  -0.000
   24       -0.000  -0.000   0.000  -0.000
   25        0.000   0.000   0.000   0.000
   26       -0.000  -0.000   0.000  -0.001
   27        0.000   0.000   0.000   0.000
   28       -0.000  -0.002   0.000  -0.003
   29        0.000   0.002   0.000   0.002
   30       -0.000  -0.001   0.000  -0.001
   31       -0.000  -0.001   0.000  -0.002
   32       -0.000  -0.000   0.000  -0.000
   33       -0.000  -0.001   0.000  -0.001
   34       -0.000  -0.001   0.000  -0.001
   35       -0.000  -0.000   0.000  -0.000
   36       -0.000  -0.001   0.000  -0.002
   37       -0.000  -0.001   0.000  -0.001
   38        0.000   0.001   0.000   0.002
   39       -0.000  -0.002   0.000  -0.003
   40        0.000   0.000   0.000   0.000
   41       -0.000  -0.000   0.000  -0.000
   42        0.000   0.000   0.000   0.000
   43       -0.000  -0.000   0.000  -0.000
   44       -0.000  -0.000   0.000  -0.000
   45        0.000  -0.000   0.000  -0.000
   46        0.000   0.001   0.000   0.001
   47       -0.000  -0.002   0.000  -0.002
   48       -0.000  -0.000   0.000  -0.000
   49        0.000   0.002   0.000   0.002
   50       -0.000  -0.002   0.000  -0.002
   51       -0.000  -0.002   0.000  -0.002
   52       -0.000  -0.001   0.000  -0.002
   53       -0.000  -0.001   0.000  -0.001
   54        0.000   0.000   0.000   0.000
   55       -0.000  -0.000   0.000  -0.000
   56       -0.000  -0.000   0.000  -0.000
   57       -0.000  -0.001   0.000  -0.001
   58        0.000   0.001   0.000   0.001
   59       -0.000  -0.000   0.000  -0.000
   60       -0.000  -0.001   0.000  -0.001
   61       -0.000   0.000   0.000   0.000
   62       -0.000  -0.000   0.000  -0.000
   63       -0.000  -0.000   0.000  -0.000
   64       -0.000  -0.000   0.000  -0.000
   65       -0.000  -0.000   0.000  -0.000
   66       -0.000  -0.001   0.000  -0.001
   67       -0.004  -0.006   0.000  -0.010
   68       -0.007  -0.021   0.000  -0.028
   69       -0.007  -0.021   0.000  -0.028
   70       -0.007  -0.021   0.000  -0.028
   71       -0.006  -0.021   0.000  -0.027
   72        0.002  -0.004  -0.362  -0.364
   73       -0.000   0.001   0.000   0.001
   74       -0.001  -0.000   0.000  -0.001
   75       -0.001   0.000   0.000  -0.001
--------------------------------------------------
tot         -0.034  -0.121  -0.362  -0.517
 
    CHARGE:  cpu time      7.9132: real time      7.9535
    FORLOC:  cpu time      0.3639: real time      0.3637
    FORNL :  cpu time     35.3100: real time     35.3271
    STRESS:  cpu time    106.1975: real time    106.3023
    FORCOR:  cpu time      1.2357: real time      1.2360
    FORHAR:  cpu time      0.4010: real time      0.4008
    MIXING:  cpu time      0.0235: real time      0.0235
    OFIELD:  cpu time      0.0001: real time      0.0001

 ---------------------------------------------------------------------------------------------

         DFTD3 V3.0 Rev 1        
 Edisp (eV)   -2.74528

 E6    (eV) :    -1.5261
 E8    (eV) :    -1.2192
 % E8        : 44.41
    FORVDW:  cpu time      1.2530: real time      1.2540

  FORCE on cell =-STRESS in cart. coord.  units (eV):
  Direction    XX          YY          ZZ          XY          YZ          ZX
  --------------------------------------------------------------------------------------
  Alpha Z   171.21393   171.21393   171.21393
  Ewald   42105.27195 42375.38525-51870.71875  -345.37559   -28.05296    -7.58709
  Hartree 41825.70621 42021.61441-40078.88056  -236.52785    -2.40011   -13.11293
  E(xc)   -1198.07285 -1197.92436 -1237.22342    -0.35568    -0.17744     0.05781
  Local  -87478.73859-87940.89985 87777.18198   573.87507    23.88452    23.53570
  n-local  -338.83668  -344.64396  -327.88071     5.67881     1.70539    -0.97086
  augment   165.40470   165.38994   172.58617    -0.12578     0.26474    -0.01968
  Kinetic  4725.34947  4750.33560  5380.98946   -17.43668     4.81718    -1.84567
  Fock        0.00000     0.00000     0.00000     0.00000     0.00000     0.00000
  vdW        -0.85788    -0.84178    -0.31962    -0.02099     0.00552    -0.00531
  -------------------------------------------------------------------------------------
  Total     -23.55974    -0.37082   -13.05153   -20.28869     0.04685     0.05196
  in kB     -13.30468    -0.20941    -7.37047   -11.45745     0.02646     0.02934
  external pressure =       -6.96 kB  Pullay stress =        0.00 kB


 VOLUME and BASIS-vectors are now :
 -----------------------------------------------------------------------------
  energy-cutoff  :      400.00
  volume of cell :     2837.11
      direct lattice vectors                 reciprocal lattice vectors
    14.778400421  0.000000000  0.000000000     0.067666322  0.039067169  0.000000000
    -7.389200211 12.798470192  0.000000000     0.000000000  0.078134338  0.000000000
     0.000000000  0.000000000 15.000000000     0.000000000  0.000000000  0.066666667

  length of vectors
    14.778400421 14.778400421 15.000000000     0.078134338  0.078134338  0.066666667


 FORCES acting on ions
    electron-ion (+dipol)            ewald-force                    non-local-force                 convergence-correction
 -----------------------------------------------------------------------------------------------
   0.667E+01 0.408E+01 0.632E+01   -.668E+01 -.408E+01 -.631E+01   0.108E-01 -.913E-03 -.128E-01   -.220E-03 -.325E-03 -.483E-03
   0.132E+02 0.189E+02 0.104E+02   -.135E+02 -.190E+02 -.104E+02   0.318E+00 0.101E+00 -.493E-02   0.230E-03 0.576E-03 0.541E-04
   0.753E+01 0.197E+02 0.899E+01   -.755E+01 -.200E+02 -.897E+01   0.130E-01 0.294E+00 -.123E-01   -.289E-03 0.231E-03 -.109E-02
   0.109E+02 0.407E+02 0.194E+02   -.110E+02 -.411E+02 -.194E+02   0.133E+00 0.430E+00 -.197E-01   -.149E-03 0.194E-02 -.803E-03
   0.195E+01 0.168E+02 0.936E+01   -.201E+01 -.169E+02 -.932E+01   0.577E-01 0.116E+00 -.449E-01   0.275E-03 0.924E-03 -.301E-02
   -.127E+02 0.296E+02 0.199E+02   0.130E+02 -.298E+02 -.198E+02   -.310E+00 0.222E+00 -.208E-01   0.121E-04 0.270E-03 -.227E-02
   0.187E+00 0.662E+00 0.756E+01   -.223E+00 -.671E+00 -.756E+01   0.268E-01 0.248E-02 -.549E-02   0.207E-03 -.145E-03 -.377E-02
   -.156E+02 0.661E+01 0.941E+01   0.158E+02 -.662E+01 -.936E+01   -.130E+00 0.488E-02 -.456E-01   -.541E-03 0.256E-03 -.311E-02
   -.235E+01 -.109E+02 0.630E+01   0.235E+01 0.110E+02 -.631E+01   0.107E-01 -.732E-01 0.686E-02   -.840E-03 -.706E-03 -.177E-02
   -.822E+01 -.441E+01 0.523E+01   0.823E+01 0.443E+01 -.522E+01   -.289E-01 -.231E-01 -.149E-01   -.104E-03 0.900E-04 -.138E-02
   -.136E+01 -.926E+01 0.482E+01   0.141E+01 0.936E+01 -.481E+01   -.567E-01 -.114E+00 -.174E-01   0.940E-03 0.488E-03 -.494E-03
   0.820E+00 0.934E+00 0.556E+01   -.806E+00 -.839E+00 -.555E+01   -.155E-01 -.874E-01 -.380E-02   0.648E-03 -.101E-02 0.664E-04
   0.174E+02 0.855E+01 0.919E+01   -.175E+02 -.852E+01 -.918E+01   0.105E+00 -.203E-01 -.396E-02   0.950E-03 -.989E-03 0.490E-03
   0.215E+02 0.124E+02 0.131E+02   -.215E+02 -.124E+02 -.130E+02   0.736E-01 0.459E-01 -.731E-02   0.102E-02 0.955E-03 0.977E-03
   0.309E+02 0.357E+02 0.204E+02   -.312E+02 -.361E+02 -.203E+02   0.311E+00 0.395E+00 -.120E+00   0.474E-03 0.184E-02 0.192E-03
   0.736E+02 0.564E+02 0.410E+02   -.773E+02 -.582E+02 -.408E+02   0.366E+01 0.181E+01 -.220E+00   0.254E-02 0.166E-02 0.100E-02
   -.500E+01 0.558E+02 0.326E+02   0.524E+01 -.565E+02 -.325E+02   -.244E+00 0.655E+00 -.129E+00   0.644E-04 0.142E-02 -.107E-02
   -.387E+02 0.907E+02 0.723E+02   0.418E+02 -.929E+02 -.723E+02   -.318E+01 0.219E+01 -.796E-02   -.137E-02 0.409E-02 0.694E-04
   -.195E+02 0.255E+02 0.198E+02   0.196E+02 -.259E+02 -.198E+02   -.395E-01 0.379E+00 -.179E-01   -.656E-03 -.261E-03 -.237E-02
   -.459E+02 0.316E+02 0.321E+02   0.464E+02 -.321E+02 -.320E+02   -.438E+00 0.533E+00 -.129E+00   -.162E-02 0.132E-02 -.134E-02
   -.113E+02 0.412E+01 0.758E+01   0.113E+02 -.415E+01 -.758E+01   -.464E-01 0.380E-01 0.144E-02   -.735E-03 -.222E-03 -.210E-02
   -.204E+02 0.318E+01 0.905E+01   0.207E+02 -.331E+01 -.904E+01   -.258E+00 0.134E+00 -.120E-01   -.843E-04 0.271E-03 -.147E-02
   0.138E+01 0.104E+01 0.531E+01   -.137E+01 -.104E+01 -.531E+01   0.446E-02 -.178E-03 0.398E-02   0.648E-04 0.377E-04 -.183E-03
   0.937E+00 0.367E+00 0.569E+01   -.857E+00 -.399E+00 -.569E+01   -.782E-01 0.306E-01 -.148E-02   -.316E-03 0.113E-02 0.228E-04
   0.159E+02 0.107E+02 0.848E+01   -.160E+02 -.109E+02 -.847E+01   0.374E-01 0.110E+00 -.146E-01   -.248E-03 0.166E-02 0.514E-03
   0.226E+02 0.184E+01 0.954E+01   -.229E+02 -.206E+01 -.956E+01   0.256E+00 0.232E+00 0.108E-01   0.666E-03 -.438E-03 0.134E-03
   0.534E+02 0.305E+02 0.299E+02   -.535E+02 -.305E+02 -.301E+02   0.118E+00 0.686E-01 0.243E+00   0.215E-02 0.127E-02 0.132E-02
   0.857E+02 0.346E+02 0.375E+02   -.891E+02 -.369E+02 -.374E+02   0.338E+01 0.227E+01 -.137E+00   0.268E-02 0.123E-02 0.992E-03
   -.601E+02 0.775E+02 0.716E+02   0.605E+02 -.813E+02 -.716E+02   -.323E+00 0.381E+01 -.323E-02   -.267E-02 0.355E-02 -.301E-04
   -.403E+02 0.104E+02 0.187E+02   0.407E+02 -.105E+02 -.187E+02   -.437E+00 0.953E-01 -.212E-01   -.133E-02 0.110E-02 -.125E-02
   -.455E+02 -.966E+01 0.186E+02   0.460E+02 0.972E+01 -.185E+02   -.491E+00 -.770E-01 -.123E+00   -.167E-02 0.628E-03 -.265E-03
   -.926E+01 0.354E+01 0.587E+01   0.937E+01 -.355E+01 -.585E+01   -.115E+00 0.121E-01 -.246E-01   0.737E-03 0.359E-03 -.734E-03
   -.598E+01 -.382E+01 0.620E+01   0.599E+01 0.383E+01 -.619E+01   -.280E-02 -.125E-01 -.129E-01   0.213E-03 0.244E-03 -.727E-03
   0.648E+01 0.357E+01 0.610E+01   -.649E+01 -.358E+01 -.608E+01   0.133E-01 0.169E-01 -.160E-01   0.523E-04 -.526E-03 -.484E-03
   0.960E+01 -.368E+01 0.531E+01   -.971E+01 0.368E+01 -.530E+01   0.128E+00 -.750E-02 -.136E-01   -.514E-03 -.387E-03 -.398E-03
   0.459E+02 0.856E+01 0.177E+02   -.464E+02 -.864E+01 -.176E+02   0.496E+00 0.872E-01 -.120E+00   0.150E-02 -.945E-03 0.391E-03
   0.399E+02 -.112E+02 0.167E+02   -.404E+02 0.113E+02 -.167E+02   0.458E+00 -.942E-01 -.584E-02   0.124E-02 -.846E-03 -.398E-03
   0.576E+02 -.793E+02 0.644E+02   -.579E+02 0.831E+02 -.645E+02   0.319E+00 -.382E+01 0.638E-01   0.276E-02 -.334E-02 0.193E-03
   -.847E+02 -.368E+02 0.375E+02   0.881E+02 0.390E+02 -.372E+02   -.338E+01 -.224E+01 -.237E+00   -.309E-02 -.146E-02 0.755E-03
   -.516E+02 -.310E+02 0.250E+02   0.518E+02 0.310E+02 -.252E+02   -.126E+00 -.518E-01 0.224E+00   -.247E-02 -.130E-02 0.109E-02
   -.219E+02 -.227E+01 0.901E+01   0.222E+02 0.248E+01 -.900E+01   -.244E+00 -.223E+00 -.152E-01   -.712E-03 0.282E-03 -.344E-03
   -.150E+02 -.108E+02 0.752E+01   0.151E+02 0.109E+02 -.751E+01   -.348E-01 -.998E-01 -.397E-02   0.198E-03 -.150E-02 0.235E-03
   -.365E+00 -.301E+00 0.477E+01   0.274E+00 0.334E+00 -.477E+01   0.866E-01 -.293E-01 -.677E-02   0.291E-03 -.808E-03 0.188E-04
   -.100E+01 -.580E+00 0.444E+01   0.998E+00 0.577E+00 -.444E+01   -.474E-02 -.183E-02 0.242E-02   -.259E-03 0.259E-04 -.166E-03
   0.204E+02 -.348E+01 0.785E+01   -.207E+02 0.361E+01 -.785E+01   0.277E+00 -.140E+00 -.312E-02   0.226E-03 0.597E-04 -.826E-03
   0.109E+02 -.385E+01 0.666E+01   -.110E+02 0.389E+01 -.666E+01   0.561E-01 -.434E-01 0.314E-02   0.995E-03 0.264E-04 -.172E-02
   0.447E+02 -.324E+02 0.288E+02   -.451E+02 0.329E+02 -.287E+02   0.458E+00 -.547E+00 -.870E-01   0.146E-02 -.731E-03 -.611E-03
   0.184E+02 -.251E+02 0.170E+02   -.184E+02 0.255E+02 -.170E+02   0.470E-01 -.398E+00 -.710E-02   0.481E-03 0.112E-03 -.169E-02
   0.361E+02 -.904E+02 0.607E+02   -.392E+02 0.926E+02 -.608E+02   0.316E+01 -.218E+01 0.116E+00   0.150E-02 -.410E-02 0.210E-03
   0.394E+01 -.543E+02 0.266E+02   -.419E+01 0.550E+02 -.265E+02   0.246E+00 -.678E+00 -.727E-01   -.714E-04 -.147E-02 -.536E-03
   -.718E+02 -.560E+02 0.305E+02   0.754E+02 0.578E+02 -.304E+02   -.368E+01 -.179E+01 -.102E+00   -.252E-02 -.198E-02 0.854E-03
   -.299E+02 -.340E+02 0.141E+02   0.302E+02 0.344E+02 -.140E+02   -.327E+00 -.393E+00 -.102E+00   -.305E-03 -.197E-02 0.299E-03
   -.202E+02 -.121E+02 0.102E+02   0.202E+02 0.122E+02 -.102E+02   -.786E-01 -.364E-01 -.114E-01   -.106E-02 -.672E-03 0.729E-03
   -.164E+02 -.782E+01 0.620E+01   0.165E+02 0.778E+01 -.618E+01   -.116E+00 0.257E-01 -.195E-01   -.884E-03 0.110E-02 0.347E-03
   -.139E+00 -.198E+00 0.433E+01   0.128E+00 0.111E+00 -.432E+01   0.982E-02 0.843E-01 -.563E-02   -.667E-03 0.111E-02 -.821E-05
   0.187E+01 0.104E+02 0.538E+01   -.191E+01 -.105E+02 -.536E+01   0.482E-01 0.108E+00 -.253E-01   -.102E-02 -.655E-03 -.506E-03
   0.828E+01 0.485E+01 0.500E+01   -.831E+01 -.486E+01 -.499E+01   0.328E-01 0.128E-01 -.133E-01   0.120E-03 -.363E-04 -.124E-02
   0.212E+01 0.119E+02 0.735E+01   -.212E+01 -.119E+02 -.735E+01   -.108E-01 0.593E-01 -.107E-02   0.742E-03 0.598E-03 -.186E-02
   0.150E+02 -.628E+01 0.837E+01   -.151E+02 0.631E+01 -.833E+01   0.143E+00 -.211E-01 -.336E-01   0.660E-03 -.176E-03 -.277E-02
   -.868E+00 -.404E-01 0.751E+01   0.896E+00 0.664E-01 -.750E+01   -.183E-01 -.221E-01 -.110E-01   -.216E-03 -.247E-03 -.382E-02
   0.115E+02 -.286E+02 0.168E+02   -.118E+02 0.289E+02 -.168E+02   0.326E+00 -.243E+00 0.838E-02   -.221E-03 -.698E-04 -.159E-02
   -.255E+01 -.160E+02 0.804E+01   0.260E+01 0.161E+02 -.800E+01   -.525E-01 -.135E+00 -.386E-01   -.841E-04 -.109E-02 -.265E-02
   -.107E+02 -.388E+02 0.138E+02   0.109E+02 0.393E+02 -.138E+02   -.147E+00 -.449E+00 -.167E-01   0.683E-05 -.167E-02 -.429E-03
   -.729E+01 -.185E+02 0.659E+01   0.731E+01 0.188E+02 -.659E+01   -.164E-01 -.310E+00 -.419E-02   0.216E-03 -.258E-03 -.937E-03
   -.121E+02 -.177E+02 0.745E+01   0.125E+02 0.178E+02 -.746E+01   -.334E+00 -.106E+00 0.113E-01   0.555E-04 -.494E-03 0.326E-04
   -.593E+01 -.285E+01 0.539E+01   0.595E+01 0.286E+01 -.538E+01   -.209E-01 -.570E-02 -.131E-01   0.381E-03 0.174E-03 -.493E-03
   0.758E+01 -.189E+02 -.276E+03   -.691E+01 0.187E+02 0.265E+03   -.662E+00 0.149E+00 0.113E+02   -.417E-03 0.292E-02 -.423E-02
   0.668E+02 0.716E+02 0.128E+03   -.671E+02 -.524E+02 -.131E+03   0.262E+00 -.192E+02 0.253E+01   0.201E-02 0.750E-02 0.156E-02
   -.957E+02 -.252E+02 0.124E+03   0.791E+02 0.351E+02 -.127E+03   0.166E+02 -.991E+01 0.237E+01   -.754E-02 0.201E-02 0.154E-02
   0.955E+02 0.182E+02 0.112E+03   -.790E+02 -.280E+02 -.114E+03   -.166E+02 0.982E+01 0.204E+01   0.772E-02 -.192E-02 0.128E-02
   -.670E+02 -.752E+02 0.971E+02   0.672E+02 0.560E+02 -.988E+02   -.243E+00 0.192E+02 0.171E+01   -.176E-02 -.791E-02 0.109E-02
   -.333E+01 -.137E+02 0.147E+03   0.339E+01 0.137E+02 -.145E+03   -.518E-01 0.143E-01 -.195E+01   0.108E-02 0.543E-03 0.155E-02
   -.161E+03 0.244E+03 -.658E+03   0.187E+03 -.284E+03 0.684E+03   -.262E+02 0.399E+02 -.257E+02   -.753E-03 0.256E-02 -.222E-02
   0.149E+03 -.210E+03 -.594E+03   -.172E+03 0.245E+03 0.574E+03   0.231E+02 -.348E+02 0.203E+02   0.228E-02 -.494E-03 -.323E-02
   0.931E+01 -.589E+01 -.174E+03   -.891E+01 0.476E+01 0.182E+03   -.393E+00 0.114E+01 -.784E+01   0.932E-04 -.674E-04 -.767E-03
 -----------------------------------------------------------------------------------------------
   0.409E+01 -.614E+01 -.329E+01   0.746E-13 0.858E-12 -.227E-12   -.409E+01 0.613E+01 0.332E+01   0.255E-02 0.536E-02 -.456E-01
 
 
 POSITION                                       TOTAL-FORCE (eV/Angst)
 -----------------------------------------------------------------------------------
      0.00068     -0.00043      1.64585         0.003001     -0.001708     -0.001157
      0.02546      1.43443      1.63828         0.001761     -0.003236      0.000729
     -4.93587     12.77435      1.63367        -0.004608      0.006521     -0.001237
      2.47421      1.39607      1.61839         0.001255     -0.001021     -0.003405
     -2.46879     12.77657      1.62678         0.001752     -0.003627     -0.005135
      4.94079      1.39098      1.60842         0.006281     -0.003203      0.004288
      7.38950     -0.00108      1.63247        -0.008920     -0.006471     -0.004978
      7.40505      1.41252      1.62652         0.000345     -0.006527     -0.002137
      9.85857      0.01391      1.64279         0.006732     -0.002616     -0.002100
      9.87241      1.43181      1.64118        -0.013234     -0.005233     -0.000285
     12.32665      0.01513      1.65089        -0.004113     -0.006995     -0.004080
     12.34574      1.44408      1.64600        -0.000909      0.007448      0.002576
     -1.19248      2.16295      1.64148        -0.004777      0.009241      0.005733
     -1.15851      3.59522      1.64081         0.000717      0.001810      0.005710
      1.26837      2.14237      1.62583        -0.001869     -0.016517      0.000443
      1.33256      3.57971      1.61809        -0.002070      0.006576      0.005397
      3.71366      2.08906      1.59806        -0.004199      0.010208     -0.001484
      3.71866      3.49590      1.57753        -0.000079     -0.009593     -0.001383
      6.17123      2.10130      1.60879        -0.001639      0.000035      0.003204
      6.18026      3.51316      1.60009        -0.003159      0.005478     -0.003531
      8.63740      2.12898      1.63338         0.002031      0.006793     -0.002896
      8.64043      3.54785      1.63315        -0.000489      0.004658     -0.000291
     11.11032      2.14635      1.64380         0.010538      0.004017      0.005368
     11.11998      3.56730      1.64425         0.001617     -0.000110      0.001669
     -2.41585      4.28189      1.64477         0.006491     -0.006866      0.005093
     -2.43765      5.70105      1.64605         0.000203      0.004087     -0.003006
      0.09847      4.32106      1.63302         0.001677      0.001344      0.000194
      0.07444      5.76093      1.63897         0.001394     -0.006106      0.004632
      4.95969      4.21278      1.57976         0.004558     -0.004183      0.000990
      7.40009      4.23994      1.62133        -0.002370     -0.002006     -0.003562
      7.35663      5.65723      1.63319         0.013915     -0.004494     -0.002458
      9.87277      4.26525      1.64263        -0.006496      0.003441     -0.004047
      9.84602      5.68386      1.64570         0.000180     -0.006437     -0.002870
     -3.69269      6.39698      1.64796        -0.000376      0.006224     -0.001595
     -3.71979      7.81559      1.64904         0.009682     -0.000716     -0.002025
     -1.20308      6.42384      1.64403        -0.014553      0.003050     -0.001635
     -1.24732      7.84127      1.63833         0.001224      0.003016     -0.001199
      1.19311      7.87011      1.61383        -0.007032      0.002070     -0.001488
      6.07933      6.31995      1.62866        -0.003218      0.005815      0.005255
      6.05452      7.75963      1.64910        -0.000359     -0.003826     -0.000440
      8.59109      6.37977      1.64463        -0.001666     -0.002176     -0.003504
      8.56904      7.79886      1.65017        -0.006564      0.006835      0.005345
      9.81157      8.51356      1.65052        -0.003711      0.002468      0.002139
     -4.95710      9.93458      1.64888        -0.009946     -0.005070      0.004653
     -2.48756      8.53335      1.64424         0.003051     -0.006350      0.001626
     -2.48452      9.95245      1.64138        -0.002342     -0.005007     -0.002697
     -0.02743      8.56870      1.62429         0.004712     -0.004676     -0.002983
     -0.01858      9.98086      1.62854        -0.001624      0.001670      0.002472
      2.43303      8.58593      1.62183         0.000924      0.005400     -0.004111
      2.43891      9.99234      1.63083         0.000986     -0.009328     -0.001718
      4.81969      8.49981      1.65783         0.000851     -0.007824      0.003151
      4.88425      9.93782      1.65770         0.000890      0.017033     -0.000860
      7.31165      8.48541      1.65407        -0.003096      0.000716      0.004322
      7.34572      9.91764      1.65628         0.003965     -0.008582      0.002734
      8.58591     10.63663      1.65168        -0.002800     -0.002192      0.000245
     -6.17339     12.06567      1.64564         0.002761      0.007778     -0.004721
     -3.71933     10.64951      1.64289         0.009246      0.006413      0.000376
     -3.70556     12.06760      1.63458        -0.004898      0.000584     -0.001139
     -1.25252     10.66954      1.63592         0.002219      0.005282     -0.003213
     -1.23682     12.08321      1.63249         0.009016      0.003368     -0.005096
      1.21162     10.69105      1.62991        -0.000644      0.000855      0.004128
      1.23233     12.10400      1.63716        -0.005626      0.001024     -0.005392
      3.67889     10.68510      1.64822        -0.000373     -0.001879     -0.003079
      3.69978     12.10522      1.64920         0.002053     -0.004744     -0.001362
      6.12757     10.64589      1.65645        -0.005694      0.002575     -0.001534
      6.15241     12.08092      1.65210        -0.003647     -0.000459     -0.001609
      3.11212      5.88277      3.81100         0.008697     -0.008386     -0.003490
      2.55854      4.21307      1.58036        -0.000965      0.000922      0.004629
      4.91821      5.57591      1.58654        -0.003133      0.000151      0.006796
      1.23644      6.50615      1.62097         0.001889     -0.001711      0.004459
      3.59246      7.86550      1.64313        -0.000825     -0.001482     -0.000690
      3.07714      6.03522      1.87009         0.003727     -0.002304     -0.000209
      3.68655      5.00346      4.42158         0.000233     -0.002263      0.005668
      2.40083      6.87294      4.42437         0.004062      0.012256      0.003940
      2.46409      6.71174      5.39522         0.007389      0.008766     -0.002131
 -----------------------------------------------------------------------------------
    total drift:                               -0.004434      0.003589     -0.011344


--------------------------------------------------------------------------------------------------------



  FREE ENERGIE OF THE ION-ELECTRON SYSTEM (eV)
  ---------------------------------------------------
  free  energy   TOTEN  =      -674.99161275 eV

  energy  without entropy=     -674.97701130  energy(sigma->0) =     -674.98431202
 
 d Force = 0.7731683E-04[ 0.348E-04, 0.120E-03]  d Energy = 0.7204312E-04 0.527E-05
 d Force = 0.7178332E+00[ 0.718E+00, 0.718E+00]  d Ewald  = 0.7178331E+00 0.171E-06


--------------------------------------------------------------------------------------------------------


    POTLOK:  cpu time      1.2911: real time      1.2913


--------------------------------------------------------------------------------------------------------


 Conjugate gradient step on ions:
 trial-energy change:   -0.000072  1 .order   -0.000077   -0.000120   -0.000035
  (g-gl).g = 0.184E-03      g.g   = 0.152E-03  gl.gl    = 0.249E-03
 g(Force)  = 0.152E-03   g(Stress)= 0.000E+00 ortho     =-0.244E-05
 gamma     =   0.73868
 trial     =   0.79864
 opt step  =   1.12607  (harmonic =   1.12607) maximal distance =0.00153279
 next E    =  -674.991625   (d E  =  -0.00008)


--------------------------------------------------------------------------------------------------------


  
 reached required accuracy - stopping structural energy minimisation
     LOOP+:  cpu time    715.3368: real time    715.8246
    4ORBIT:  cpu time      0.0000: real time      0.0000



 total charge

# of ion       s       p       d       tot
------------------------------------------
    1        0.864   1.782   0.000   2.646
    2        0.863   1.781   0.000   2.645
    3        0.867   1.797   0.000   2.663
    4        0.869   1.796   0.000   2.665
    5        0.869   1.803   0.000   2.673
    6        0.869   1.810   0.000   2.679
    7        0.869   1.801   0.000   2.670
    8        0.869   1.803   0.000   2.673
    9        0.867   1.798   0.000   2.665
   10        0.867   1.794   0.000   2.661
   11        0.866   1.787   0.000   2.653
   12        0.864   1.783   0.000   2.647
   13        0.863   1.782   0.000   2.645
   14        0.858   1.758   0.000   2.616
   15        0.864   1.784   0.000   2.648
   16        0.852   1.738   0.000   2.590
   17        0.872   1.816   0.000   2.688
   18        0.866   1.788   0.000   2.654
   19        0.869   1.810   0.000   2.679
   20        0.872   1.816   0.000   2.688
   21        0.867   1.798   0.000   2.665
   22        0.867   1.797   0.000   2.663
   23        0.866   1.790   0.000   2.656
   24        0.864   1.783   0.000   2.647
   25        0.863   1.782   0.000   2.645
   26        0.863   1.781   0.000   2.645
   27        0.853   1.765   0.000   2.618
   28        0.852   1.738   0.000   2.590
   29        0.866   1.788   0.000   2.654
   30        0.869   1.796   0.000   2.665
   31        0.864   1.784   0.000   2.648
   32        0.866   1.787   0.000   2.653
   33        0.864   1.782   0.000   2.646
   34        0.864   1.782   0.000   2.646
   35        0.866   1.787   0.000   2.653
   36        0.864   1.784   0.000   2.647
   37        0.869   1.796   0.000   2.665
   38        0.866   1.790   0.000   2.656
   39        0.852   1.738   0.000   2.590
   40        0.853   1.765   0.000   2.618
   41        0.863   1.781   0.000   2.645
   42        0.863   1.782   0.000   2.645
   43        0.864   1.783   0.000   2.647
   44        0.866   1.790   0.000   2.656
   45        0.866   1.797   0.000   2.663
   46        0.867   1.798   0.000   2.665
   47        0.872   1.816   0.000   2.688
   48        0.869   1.810   0.000   2.679
   49        0.866   1.790   0.000   2.656
   50        0.872   1.816   0.000   2.688
   51        0.852   1.737   0.000   2.589
   52        0.863   1.783   0.000   2.647
   53        0.858   1.758   0.000   2.616
   54        0.863   1.782   0.000   2.645
   55        0.864   1.783   0.000   2.647
   56        0.866   1.787   0.000   2.653
   57        0.867   1.794   0.000   2.661
   58        0.867   1.798   0.000   2.665
   59        0.869   1.803   0.000   2.673
   60        0.869   1.801   0.000   2.670
   61        0.869   1.810   0.000   2.679
   62        0.869   1.803   0.000   2.673
   63        0.869   1.796   0.000   2.665
   64        0.866   1.797   0.000   2.663
   65        0.863   1.781   0.000   2.644
   66        0.864   1.782   0.000   2.646
   67        0.883   1.621   0.000   2.503
   68        1.243   2.606   0.000   3.849
   69        1.243   2.607   0.000   3.850
   70        1.242   2.606   0.000   3.849
   71        1.242   2.605   0.000   3.847
   72        0.510   0.744   8.306   9.560
   73        1.622   3.541   0.000   5.163
   74        1.603   3.588   0.000   5.191
   75        0.606   0.105   0.000   0.711
--------------------------------------------------
tot         67.280 138.021   8.306 213.607



 magnetization (x)

# of ion       s       p       d       tot
------------------------------------------
    1       -0.000  -0.001   0.000  -0.001
    2       -0.000  -0.000   0.000  -0.000
    3        0.000  -0.000   0.000  -0.000
    4       -0.000  -0.001   0.000  -0.001
    5       -0.000  -0.000   0.000  -0.000
    6       -0.000   0.000   0.000   0.000
    7       -0.000  -0.001   0.000  -0.001
    8       -0.000  -0.000   0.000  -0.000
    9        0.000   0.001   0.000   0.001
   10       -0.000  -0.001   0.000  -0.001
   11       -0.000  -0.000   0.000  -0.000
   12       -0.000  -0.000   0.000  -0.000
   13        0.000   0.000   0.000   0.000
   14       -0.000  -0.001   0.000  -0.001
   15       -0.000  -0.001   0.000  -0.002
   16       -0.000  -0.002   0.000  -0.003
   17       -0.000  -0.002   0.000  -0.002
   18        0.000   0.002   0.000   0.002
   19       -0.000   0.000   0.000   0.000
   20       -0.000  -0.002   0.000  -0.002
   21        0.000   0.001   0.000   0.001
   22        0.000  -0.000   0.000  -0.000
   23       -0.000  -0.000   0.000  -0.000
   24       -0.000  -0.000   0.000  -0.000
   25        0.000   0.000   0.000   0.000
   26       -0.000  -0.000   0.000  -0.001
   27        0.000   0.000   0.000   0.000
   28       -0.000  -0.002   0.000  -0.003
   29        0.000   0.002   0.000   0.002
   30       -0.000  -0.001   0.000  -0.001
   31       -0.000  -0.001   0.000  -0.002
   32       -0.000  -0.000   0.000  -0.000
   33       -0.000  -0.001   0.000  -0.001
   34       -0.000  -0.001   0.000  -0.001
   35       -0.000  -0.000   0.000  -0.000
   36       -0.000  -0.001   0.000  -0.002
   37       -0.000  -0.001   0.000  -0.001
   38        0.000   0.001   0.000   0.002
   39       -0.000  -0.002   0.000  -0.003
   40        0.000   0.000   0.000   0.000
   41       -0.000  -0.000   0.000  -0.000
   42        0.000   0.000   0.000   0.000
   43       -0.000  -0.000   0.000  -0.000
   44       -0.000  -0.000   0.000  -0.000
   45        0.000  -0.000   0.000  -0.000
   46        0.000   0.001   0.000   0.001
   47       -0.000  -0.002   0.000  -0.002
   48       -0.000  -0.000   0.000  -0.000
   49        0.000   0.002   0.000   0.002
   50       -0.000  -0.002   0.000  -0.002
   51       -0.000  -0.002   0.000  -0.002
   52       -0.000  -0.001   0.000  -0.002
   53       -0.000  -0.001   0.000  -0.001
   54        0.000   0.000   0.000   0.000
   55       -0.000  -0.000   0.000  -0.000
   56       -0.000  -0.000   0.000  -0.000
   57       -0.000  -0.001   0.000  -0.001
   58        0.000   0.001   0.000   0.001
   59       -0.000  -0.000   0.000  -0.000
   60       -0.000  -0.001   0.000  -0.001
   61       -0.000   0.000   0.000   0.000
   62       -0.000  -0.000   0.000  -0.000
   63       -0.000  -0.000   0.000  -0.000
   64       -0.000  -0.000   0.000  -0.000
   65       -0.000  -0.000   0.000  -0.000
   66       -0.000  -0.001   0.000  -0.001
   67       -0.004  -0.006   0.000  -0.010
   68       -0.007  -0.021   0.000  -0.028
   69       -0.007  -0.021   0.000  -0.028
   70       -0.007  -0.021   0.000  -0.028
   71       -0.006  -0.021   0.000  -0.027
   72        0.002  -0.004  -0.362  -0.364
   73       -0.000   0.001   0.000   0.001
   74       -0.001  -0.000   0.000  -0.001
   75       -0.001   0.000   0.000  -0.001
--------------------------------------------------
tot         -0.034  -0.121  -0.362  -0.517
 

 total amount of memory used by VASP MPI-rank0   372497. kBytes
=======================================================================

   base      :      30000. kBytes
   nonlr-proj:       9197. kBytes
   fftplans  :      39752. kBytes
   grid      :      41822. kBytes
   one-center:        590. kBytes
   wavefun   :     251136. kBytes
 
  
  
 General timing and accounting informations for this job:
 ========================================================
  
                  Total CPU time used (sec):    62679.672
                            User time (sec):    62610.663
                          System time (sec):       69.009
                         Elapsed time (sec):    62744.979
  
                   Maximum memory used (kb):     1823720.
                   Average memory used (kb):          N/A
  
                          Minor page faults:      1353695
                          Major page faults:            0
                 Voluntary context switches:       594867
