 running   32 mpi-ranks, on    1 nodes
 distrk:  each k-point on   32 cores,    1 groups
 distr:  one band on    4 cores,    8 groups
 vasp.6.4.1 05Apr23 (build Apr 10 2023 21:44:22) complex                        
  
 POSCAR found type information on POSCAR C N NiO H 
 POSCAR found :  5 types and      75 ions
 Reading from existing POTCAR
 scaLAPACK will be used
 -----------------------------------------------------------------------------
|                                                                             |
|           W    W    AA    RRRRR   N    N  II  N    N   GGGG   !!!           |
|           W    W   A  A   R    R  NN   N  II  NN   N  G    G  !!!           |
|           W    W  A    A  R    R  N N  N  II  N N  N  G       !!!           |
|           W WW W  AAAAAA  RRRRR   N  N N  II  N  N N  G  GGG   !            |
|           WW  WW  A    A  R   R   N   NN  II  N   NN  G    G                |
|           W    W  A    A  R    R  N    N  II  N    N   GGGG   !!!           |
|                                                                             |
|     The value NCORE = 8 specified in the INCAR file was overwritten,        |
|     because it was not compatible with the 32 processes available:          |
|     NCORE = 4                                                               |
|     was used instead, please check that this makes sense for your           |
|     machine.                                                                |
|                                                                             |
 -----------------------------------------------------------------------------

 Reading from existing POTCAR
 LDA part: xc-table for Pade appr. of Perdew
 POSCAR, INCAR and KPOINTS ok, starting setup
 FFT: planning ... GRIDC
 FFT: planning ... GRID_SOFT
 FFT: planning ... GRID
 WAVECAR not read
 entering main loop
       N       E                     dE             d eps       ncg     rms          rms(c)
DAV:   1     0.253166681373E+04    0.25317E+04   -0.10931E+05 21864   0.982E+02
DAV:   2    -0.239698105697E+03   -0.27714E+04   -0.26468E+04 27504   0.275E+02
DAV:   3    -0.712432844893E+03   -0.47273E+03   -0.46874E+03 23152   0.121E+02
DAV:   4    -0.729557496140E+03   -0.17125E+02   -0.16956E+02 23776   0.294E+01
DAV:   5    -0.730240132386E+03   -0.68264E+00   -0.67987E+00 28656   0.550E+00
DAV:   6    -0.730252438819E+03   -0.12306E-01   -0.12240E-01 25928   0.659E-01
DAV:   7    -0.730253015781E+03   -0.57696E-03   -0.57500E-03 29240   0.149E-01
DAV:   8    -0.730253035943E+03   -0.20161E-04   -0.20087E-04 20944   0.201E-02
DAV:   9    -0.730253037217E+03   -0.12739E-05   -0.12689E-05 16624   0.594E-03
DAV:  10    -0.730253037376E+03   -0.15914E-06   -0.15869E-06 15184   0.310E-03
DAV:  11    -0.730253037430E+03   -0.54606E-07   -0.53717E-07 14000   0.208E-03
DAV:  12    -0.730253037458E+03   -0.27474E-07   -0.27388E-07 13480   0.153E-03
DAV:  13    -0.730253037473E+03   -0.14901E-07   -0.14909E-07 13328   0.110E-03
DAV:  14    -0.730253037481E+03   -0.81709E-08   -0.83890E-08 13096   0.822E-04
DAV:  15    -0.730253037486E+03   -0.55370E-08   -0.48228E-08 13056   0.599E-04
DAV:  16    -0.730253037489E+03   -0.25684E-08   -0.28201E-08 13056   0.454E-04
DAV:  17    -0.730253037491E+03   -0.18263E-08   -0.16711E-08 13056   0.334E-04
DAV:  18    -0.730253037492E+03   -0.88767E-09   -0.10030E-08 13048   0.255E-04
DAV:  19    -0.730253037492E+03   -0.69849E-09   -0.60853E-09 12976   0.189E-04
DAV:  20    -0.730253037493E+03   -0.26921E-09   -0.37288E-09 12696   0.145E-04    0.594E+01
RMM:  21    -0.737909737011E+03   -0.76567E+01   -0.24918E+02 24982   0.395E+01    0.985E+01
RMM:  22    -0.715992922020E+03    0.21917E+02   -0.39335E+01 19995   0.136E+01    0.647E+01
RMM:  23    -0.680501898369E+03    0.35491E+02   -0.41428E+01 20425   0.127E+01    0.242E+01
RMM:  24    -0.674413357236E+03    0.60885E+01   -0.15835E+01 19632   0.795E+00    0.178E+01
RMM:  25    -0.672112439729E+03    0.23009E+01   -0.13499E+01 19889   0.758E+00    0.115E+01
RMM:  26    -0.672199907449E+03   -0.87468E-01   -0.22655E+00 22901   0.372E+00    0.707E+00
RMM:  27    -0.672342504840E+03   -0.14260E+00   -0.63069E-01 20138   0.171E+00    0.449E+00
RMM:  28    -0.672315513473E+03    0.26991E-01   -0.39997E-01 19817   0.130E+00    0.815E+00
RMM:  29    -0.672183471273E+03    0.13204E+00   -0.13008E-01 19708   0.893E-01    0.300E+00
RMM:  30    -0.672177116526E+03    0.63547E-02   -0.97671E-02 19640   0.593E-01    0.875E-01
RMM:  31    -0.672176620467E+03    0.49606E-03   -0.15384E-02 22437   0.313E-01    0.530E-01
RMM:  32    -0.672176828714E+03   -0.20825E-03   -0.40115E-03 21889   0.120E-01    0.419E-01
RMM:  33    -0.672177049611E+03   -0.22090E-03   -0.84308E-04 22216   0.554E-02    0.238E-01
RMM:  34    -0.672177203420E+03   -0.15381E-03   -0.20843E-04 20007   0.288E-02    0.118E-01
RMM:  35    -0.672177239623E+03   -0.36203E-04   -0.46202E-05 14194   0.151E-02    0.644E-02
RMM:  36    -0.672177248674E+03   -0.90515E-05   -0.27910E-05 13167   0.115E-02
   1 F= -.67492107E+03 E0= -.67491598E+03  d E =-.674921E+03  mag=    -0.7442
 curvature:   0.00 expect dE= 0.000E+00 dE for cont linesearch  0.000E+00
 trial: gam= 0.00000 g(F)=  0.333E-01 g(S)=  0.000E+00 ort = 0.000E+00 (trialstep = 0.100E+01)
 search vector abs. value=  0.333E-01
 bond charge predicted
       N       E                     dE             d eps       ncg     rms          rms(c)
DAV:   1    -0.672195999474E+03   -0.18760E-01   -0.22873E+00 20840   0.364E+00    0.123E+00
RMM:   2    -0.672217703121E+03   -0.21704E-01   -0.76783E-02 20990   0.708E-01    0.275E+00
RMM:   3    -0.672199267601E+03    0.18436E-01   -0.23871E-02 20337   0.405E-01    0.801E-01
RMM:   4    -0.672199239113E+03    0.28488E-04   -0.50668E-03 24696   0.165E-01    0.280E-01
RMM:   5    -0.672199209765E+03    0.29348E-04   -0.13902E-03 20668   0.699E-02    0.152E-01
RMM:   6    -0.672199319053E+03   -0.10929E-03   -0.41570E-04 20275   0.469E-02    0.138E-01
RMM:   7    -0.672199367347E+03   -0.48294E-04   -0.11756E-04 17301   0.227E-02    0.667E-02
RMM:   8    -0.672199390429E+03   -0.23082E-04   -0.27487E-05 12729   0.129E-02    0.298E-02
RMM:   9    -0.672199394958E+03   -0.45293E-05   -0.75270E-06 11859   0.750E-03
   2 F= -.67494348E+03 E0= -.67493771E+03  d E =-.224131E-01  mag=    -0.7178
 trial-energy change:   -0.022413  1 .order   -0.022469   -0.033319   -0.011620
 step:   1.5487(harm=  1.5355)  dis= 0.01145  next Energy=  -674.946660 (dE=-0.256E-01)
 bond charge predicted
       N       E                     dE             d eps       ncg     rms          rms(c)
DAV:   1    -0.672201598838E+03   -0.22084E-02   -0.69196E-01 20224   0.200E+00    0.739E-01
RMM:   2    -0.672208758877E+03   -0.71600E-02   -0.22162E-02 20505   0.389E-01    0.167E+00
RMM:   3    -0.672202285620E+03    0.64733E-02   -0.77474E-03 20168   0.235E-01    0.538E-01
RMM:   4    -0.672202327743E+03   -0.42123E-04   -0.16365E-03 24352   0.961E-02    0.166E-01
RMM:   5    -0.672202342889E+03   -0.15146E-04   -0.47436E-04 20326   0.409E-02    0.855E-02
RMM:   6    -0.672202392871E+03   -0.49982E-04   -0.12886E-04 18668   0.262E-02    0.783E-02
RMM:   7    -0.672202411947E+03   -0.19076E-04   -0.33560E-05 12780   0.131E-02    0.418E-02
RMM:   8    -0.672202422324E+03   -0.10376E-04   -0.94446E-06 11928   0.797E-03    0.126E-02
RMM:   9    -0.672202427804E+03   -0.54804E-05   -0.32981E-06 11726   0.503E-03
   3 F= -.67494665E+03 E0= -.67494051E+03  d E =-.255800E-01  mag=    -0.6965
 curvature:  -0.77 expect dE=-0.216E-01 dE for cont linesearch -0.428E-06
 trial: gam= 0.84996 g(F)=  0.282E-01 g(S)=  0.000E+00 ort =-0.136E-03 (trialstep = 0.711E+00)
 search vector abs. value=  0.520E-01
 bond charge predicted
       N       E                     dE             d eps       ncg     rms          rms(c)
DAV:   1    -0.672214293514E+03   -0.11871E-01   -0.17616E+00 20464   0.311E+00    0.884E-01
RMM:   2    -0.672224010089E+03   -0.97166E-02   -0.41491E-02 21011   0.521E-01    0.198E+00
RMM:   3    -0.672216217640E+03    0.77924E-02   -0.11546E-02 20055   0.294E-01    0.723E-01
RMM:   4    -0.672216173171E+03    0.44469E-04   -0.24475E-03 23302   0.122E-01    0.247E-01
RMM:   5    -0.672216323342E+03   -0.15017E-03   -0.70213E-04 20174   0.510E-02    0.168E-01
RMM:   6    -0.672216477190E+03   -0.15385E-03   -0.31685E-04 19790   0.392E-02    0.228E-01
RMM:   7    -0.672216452979E+03    0.24210E-04   -0.92082E-05 15528   0.221E-02    0.861E-02
RMM:   8    -0.672216484259E+03   -0.31280E-04   -0.29324E-05 12948   0.125E-02    0.976E-02
RMM:   9    -0.672216484393E+03   -0.13426E-06   -0.15959E-05 12301   0.983E-03
   4 F= -.67496092E+03 E0= -.67495432E+03  d E =-.142700E-01  mag=    -0.6616
 trial-energy change:   -0.014270  1 .order   -0.014268   -0.019949   -0.008586
 step:   1.2478(harm=  1.2478)  dis= 0.01096  next Energy=  -674.964159 (dE=-0.175E-01)
 bond charge predicted
       N       E                     dE             d eps       ncg     rms          rms(c)
DAV:   1    -0.672218320978E+03   -0.18367E-02   -0.10059E+00 20168   0.235E+00    0.718E-01
RMM:   2    -0.672224292226E+03   -0.59712E-02   -0.23909E-02 20978   0.397E-01    0.168E+00
RMM:   3    -0.672219346942E+03    0.49453E-02   -0.69364E-03 19921   0.229E-01    0.643E-01
RMM:   4    -0.672219324127E+03    0.22814E-04   -0.13470E-03 22797   0.952E-02    0.223E-01
RMM:   5    -0.672219424735E+03   -0.10061E-03   -0.45679E-04 20015   0.413E-02    0.158E-01
RMM:   6    -0.672219496346E+03   -0.71611E-04   -0.19688E-04 18694   0.306E-02    0.181E-01
RMM:   7    -0.672219493545E+03    0.28007E-05   -0.54843E-05 14056   0.175E-02
   5 F= -.67496408E+03 E0= -.67495718E+03  d E =-.174371E-01  mag=    -0.6269
 curvature:  -1.16 expect dE=-0.274E-01 dE for cont linesearch -0.786E-06
 trial: gam= 0.84736 g(F)=  0.237E-01 g(S)=  0.000E+00 ort =-0.188E-03 (trialstep = 0.701E+00)
 search vector abs. value=  0.607E-01
 bond charge predicted
       N       E                     dE             d eps       ncg     rms          rms(c)
DAV:   1    -0.672226482442E+03   -0.69861E-02   -0.17725E+00 20000   0.313E+00    0.676E-01
RMM:   2    -0.672231871178E+03   -0.53887E-02   -0.34960E-02 19711   0.495E-01    0.150E+00
RMM:   3    -0.672228727597E+03    0.31436E-02   -0.94385E-03 22085   0.271E-01    0.679E-01
RMM:   4    -0.672228547425E+03    0.18017E-03   -0.20086E-03 22386   0.103E-01    0.372E-01
RMM:   5    -0.672228759390E+03   -0.21196E-03   -0.96046E-04 19473   0.643E-02    0.382E-01
RMM:   6    -0.672228700373E+03    0.59017E-04   -0.52877E-04 20724   0.516E-02    0.229E-01
RMM:   7    -0.672228724401E+03   -0.24028E-04   -0.96918E-05 16231   0.253E-02    0.869E-02
RMM:   8    -0.672228757719E+03   -0.33318E-04   -0.44505E-05 14190   0.147E-02    0.932E-02
RMM:   9    -0.672228761273E+03   -0.35543E-05   -0.14804E-05 12263   0.100E-02
   6 F= -.67497365E+03 E0= -.67496645E+03  d E =-.956384E-02  mag=    -0.5855
 trial-energy change:   -0.009564  1 .order   -0.009577   -0.016500   -0.002653
 step:   0.8350(harm=  0.8350)  dis= 0.00770  next Energy=  -674.973916 (dE=-0.983E-02)
 bond charge predicted
       N       E                     dE             d eps       ncg     rms          rms(c)
DAV:   1    -0.672228888155E+03   -0.13044E-03   -0.65233E-02 20616   0.601E-01    0.145E-01
RMM:   2    -0.672229112624E+03   -0.22447E-03   -0.13706E-03 20054   0.960E-02    0.332E-01
RMM:   3    -0.672228944262E+03    0.16836E-03   -0.36819E-04 20190   0.541E-02    0.147E-01
RMM:   4    -0.672228946570E+03   -0.23082E-05   -0.75140E-05 15561   0.223E-02    0.784E-02
RMM:   5    -0.672228963780E+03   -0.17210E-04   -0.38804E-05 13621   0.145E-02    0.685E-02
RMM:   6    -0.672228966722E+03   -0.29425E-05   -0.17885E-05 12301   0.107E-02
   7 F= -.67497391E+03 E0= -.67496666E+03  d E =-.982493E-02  mag=    -0.5758
 curvature:  -1.08 expect dE=-0.742E-02 dE for cont linesearch -0.175E-06
 trial: gam= 0.27872 g(F)=  0.689E-02 g(S)=  0.000E+00 ort = 0.995E-04 (trialstep = 0.728E+00)
 search vector abs. value=  0.117E-01
 bond charge predicted
       N       E                     dE             d eps       ncg     rms          rms(c)
DAV:   1    -0.672231266464E+03   -0.23027E-02   -0.35645E-01 19928   0.144E+00    0.238E-01
RMM:   2    -0.672231903991E+03   -0.63753E-03   -0.66725E-03 19209   0.216E-01    0.409E-01
RMM:   3    -0.672231767364E+03    0.13663E-03   -0.17067E-03 21983   0.118E-01    0.373E-01
RMM:   4    -0.672231731439E+03    0.35925E-04   -0.44095E-04 21217   0.453E-02    0.332E-01
RMM:   5    -0.672231603143E+03    0.12830E-03   -0.25059E-04 19439   0.330E-02    0.981E-02
RMM:   6    -0.672231641503E+03   -0.38360E-04   -0.87177E-05 17262   0.204E-02    0.611E-02
RMM:   7    -0.672231658706E+03   -0.17203E-04   -0.20445E-05 12549   0.125E-02    0.186E-02
RMM:   8    -0.672231664133E+03   -0.54274E-05   -0.65760E-06 11823   0.681E-03
   8 F= -.67497690E+03 E0= -.67496961E+03  d E =-.299329E-02  mag=    -0.5574
 trial-energy change:   -0.002993  1 .order   -0.002946   -0.005033   -0.000859
 step:   0.8660(harm=  0.8772)  dis= 0.00267  next Energy=  -674.976985 (dE=-0.308E-02)
 bond charge predicted
       N       E                     dE             d eps       ncg     rms          rms(c)
DAV:   1    -0.672231688565E+03   -0.29859E-04   -0.12922E-02 20120   0.274E-01    0.459E-02
RMM:   2    -0.672231703395E+03   -0.14830E-04   -0.24542E-04 19202   0.413E-02    0.742E-02
RMM:   3    -0.672231696943E+03    0.64518E-05   -0.60383E-05 15052   0.226E-02    0.744E-02
RMM:   4    -0.672231699384E+03   -0.24404E-05   -0.15662E-05 12317   0.107E-02    0.648E-02
RMM:   5    -0.672231699771E+03   -0.38732E-06   -0.86321E-06 11695   0.709E-03    0.316E-02
RMM:   6    -0.672231703159E+03   -0.33878E-05   -0.43500E-06 11582   0.598E-03
   9 F= -.67497700E+03 E0= -.67496970E+03  d E =-.308647E-02  mag=    -0.5534
 curvature:  -0.74 expect dE=-0.215E-02 dE for cont linesearch -0.993E-06
 trial: gam= 0.41084 g(F)=  0.292E-02 g(S)=  0.000E+00 ort = 0.125E-03 (trialstep = 0.755E+00)
 search vector abs. value=  0.499E-02
 bond charge predicted
       N       E                     dE             d eps       ncg     rms          rms(c)
DAV:   1    -0.672232924414E+03   -0.12246E-02   -0.14759E-01 19864   0.929E-01    0.102E-01
RMM:   2    -0.672233100344E+03   -0.17593E-03   -0.24640E-03 19204   0.123E-01    0.216E-01
RMM:   3    -0.672233056339E+03    0.44004E-04   -0.54884E-04 21610   0.621E-02    0.918E-02
RMM:   4    -0.672233062902E+03   -0.65629E-05   -0.12094E-04 18489   0.254E-02    0.747E-02
RMM:   5    -0.672233075480E+03   -0.12578E-04   -0.91640E-05 18381   0.197E-02    0.284E-02
RMM:   6    -0.672233087817E+03   -0.12337E-04   -0.23344E-05 12443   0.115E-02    0.273E-02
RMM:   7    -0.672233092291E+03   -0.44735E-05   -0.49558E-06 11746   0.731E-03
  10 F= -.67497861E+03 E0= -.67497132E+03  d E =-.161476E-02  mag=    -0.5490
 trial-energy change:   -0.001615  1 .order   -0.001603   -0.002242   -0.000964
 step:   1.3252(harm=  1.3252)  dis= 0.00283  next Energy=  -674.978963 (dE=-0.197E-02)
 bond charge predicted
       N       E                     dE             d eps       ncg     rms          rms(c)
DAV:   1    -0.672233196399E+03   -0.10858E-03   -0.84133E-02 19856   0.701E-01    0.771E-02
RMM:   2    -0.672233288934E+03   -0.92535E-04   -0.14141E-03 19200   0.940E-02    0.155E-01
RMM:   3    -0.672233268593E+03    0.20341E-04   -0.31618E-04 20796   0.475E-02    0.738E-02
RMM:   4    -0.672233274068E+03   -0.54754E-05   -0.72110E-05 15471   0.205E-02    0.582E-02
RMM:   5    -0.672233285939E+03   -0.11870E-04   -0.52047E-05 16904   0.154E-02    0.196E-02
RMM:   6    -0.672233295278E+03   -0.93387E-05   -0.12932E-05 11859   0.908E-03
  11 F= -.67497898E+03 E0= -.67497168E+03  d E =-.198705E-02  mag=    -0.5454
 curvature:  -1.11 expect dE=-0.277E-02 dE for cont linesearch -0.688E-07
 trial: gam= 0.86829 g(F)=  0.248E-02 g(S)=  0.000E+00 ort = 0.176E-04 (trialstep = 0.691E+00)
 search vector abs. value=  0.628E-02
 bond charge predicted
       N       E                     dE             d eps       ncg     rms          rms(c)
DAV:   1    -0.672234304315E+03   -0.10184E-02   -0.16449E-01 19648   0.954E-01    0.784E-02
RMM:   2    -0.672234439970E+03   -0.13565E-03   -0.24387E-03 19212   0.122E-01    0.730E-02
RMM:   3    -0.672234478535E+03   -0.38565E-04   -0.51187E-04 21854   0.551E-02    0.664E-02
RMM:   4    -0.672234484195E+03   -0.56605E-05   -0.87961E-05 16990   0.253E-02    0.706E-02
RMM:   5    -0.672234503100E+03   -0.18904E-04   -0.47954E-05 15619   0.179E-02    0.688E-02
RMM:   6    -0.672234518640E+03   -0.15541E-04   -0.40228E-05 14649   0.145E-02    0.152E-02
RMM:   7    -0.672234523629E+03   -0.49889E-05   -0.70251E-06 11808   0.780E-03
  12 F= -.67498040E+03 E0= -.67497311E+03  d E =-.141780E-02  mag=    -0.5460
 trial-energy change:   -0.001418  1 .order   -0.001414   -0.001727   -0.001100
 step:   1.9039(harm=  1.9039)  dis= 0.00525  next Energy=  -674.981363 (dE=-0.238E-02)
 bond charge predicted
       N       E                     dE             d eps       ncg     rms          rms(c)
DAV:   1    -0.672234510643E+03    0.79975E-05   -0.50736E-01 19472   0.168E+00    0.136E-01
RMM:   2    -0.672234995353E+03   -0.48471E-03   -0.75372E-03 19212   0.214E-01    0.130E-01
RMM:   3    -0.672235111655E+03   -0.11630E-03   -0.15566E-03 22877   0.960E-02    0.113E-01
RMM:   4    -0.672235118822E+03   -0.71674E-05   -0.27272E-04 20572   0.416E-02    0.122E-01
RMM:   5    -0.672235154006E+03   -0.35184E-04   -0.15502E-04 18588   0.296E-02    0.121E-01
RMM:   6    -0.672235181371E+03   -0.27365E-04   -0.12130E-04 19031   0.241E-02    0.279E-02
RMM:   7    -0.672235189602E+03   -0.82311E-05   -0.19610E-05 12547   0.111E-02
  13 F= -.67498140E+03 E0= -.67497412E+03  d E =-.241718E-02  mag=    -0.5472
 curvature:  -2.39 expect dE=-0.448E-02 dE for cont linesearch -0.375E-06
 trial: gam= 0.72538 g(F)=  0.188E-02 g(S)=  0.000E+00 ort = 0.314E-04 (trialstep = 0.934E+00)
 search vector abs. value=  0.522E-02
 bond charge predicted
       N       E                     dE             d eps       ncg     rms          rms(c)
DAV:   1    -0.672235968571E+03   -0.78720E-03   -0.26016E-01 19648   0.119E+00    0.109E-01
RMM:   2    -0.672236241318E+03   -0.27275E-03   -0.39451E-03 19207   0.161E-01    0.230E-01
RMM:   3    -0.672236286870E+03   -0.45552E-04   -0.93959E-04 22320   0.735E-02    0.205E-01
RMM:   4    -0.672236256975E+03    0.29895E-04   -0.14800E-04 18415   0.292E-02    0.155E-01
RMM:   5    -0.672236283235E+03   -0.26260E-04   -0.16120E-04 18610   0.247E-02    0.130E-01
RMM:   6    -0.672236348655E+03   -0.65420E-04   -0.19683E-04 19967   0.281E-02    0.679E-02
RMM:   7    -0.672236332686E+03    0.15969E-04   -0.33673E-05 13064   0.133E-02    0.443E-02
RMM:   8    -0.672236337358E+03   -0.46725E-05   -0.12577E-05 12292   0.844E-03
  14 F= -.67498273E+03 E0= -.67497547E+03  d E =-.133415E-02  mag=    -0.5522
 trial-energy change:   -0.001334  1 .order   -0.001295   -0.001772   -0.000819
 step:   1.7352(harm=  1.7352)  dis= 0.00386  next Energy=  -674.983048 (dE=-0.165E-02)
 bond charge predicted
       N       E                     dE             d eps       ncg     rms          rms(c)
DAV:   1    -0.672236309706E+03    0.22980E-04   -0.19215E-01 19632   0.102E+00    0.104E-01
RMM:   2    -0.672236507946E+03   -0.19824E-03   -0.30014E-03 19218   0.140E-01    0.198E-01
RMM:   3    -0.672236551171E+03   -0.43224E-04   -0.72326E-04 22145   0.640E-02    0.186E-01
RMM:   4    -0.672236527913E+03    0.23258E-04   -0.10954E-04 17160   0.258E-02    0.151E-01
RMM:   5    -0.672236555873E+03   -0.27960E-04   -0.15564E-04 18590   0.231E-02    0.135E-01
RMM:   6    -0.672236657131E+03   -0.10126E-03   -0.27987E-04 21136   0.308E-02    0.992E-02
RMM:   7    -0.672236615499E+03    0.41632E-04   -0.45750E-05 13414   0.144E-02    0.805E-02
RMM:   8    -0.672236616146E+03   -0.64738E-06   -0.11732E-05 12235   0.840E-03
  15 F= -.67498317E+03 E0= -.67497591E+03  d E =-.177382E-02  mag=    -0.5563
 curvature:  -2.39 expect dE=-0.369E-02 dE for cont linesearch -0.620E-10
 trial: gam= 0.82218 g(F)=  0.155E-02 g(S)=  0.000E+00 ort =-0.368E-06 (trialstep = 0.109E+01)
 search vector abs. value=  0.508E-02
 bond charge predicted
       N       E                     dE             d eps       ncg     rms          rms(c)
DAV:   1    -0.672236868175E+03   -0.25268E-03   -0.34843E-01 19512   0.139E+00    0.157E-01
RMM:   2    -0.672237205112E+03   -0.33694E-03   -0.57890E-03 19210   0.196E-01    0.224E-01
RMM:   3    -0.672237307141E+03   -0.10203E-03   -0.14738E-03 23155   0.902E-02    0.159E-01
RMM:   4    -0.672237354029E+03   -0.46888E-04   -0.21789E-04 20468   0.352E-02    0.248E-01
RMM:   5    -0.672237360412E+03   -0.63827E-05   -0.31464E-04 19584   0.341E-02    0.930E-02
RMM:   6    -0.672237428709E+03   -0.68297E-04   -0.17023E-04 19416   0.272E-02    0.791E-02
RMM:   7    -0.672237396850E+03    0.31859E-04   -0.50534E-05 13874   0.172E-02    0.688E-02
RMM:   8    -0.672237393155E+03    0.36947E-05   -0.29161E-05 13271   0.107E-02
  16 F= -.67498410E+03 E0= -.67497685E+03  d E =-.930430E-03  mag=    -0.5636
 trial-energy change:   -0.000930  1 .order   -0.000880   -0.001690   -0.000069
 step:   1.1328(harm=  1.1403)  dis= 0.00284  next Energy=  -674.984106 (dE=-0.932E-03)
 bond charge predicted
       N       E                     dE             d eps       ncg     rms          rms(c)
DAV:   1    -0.672237387065E+03    0.97846E-05   -0.49809E-04 21416   0.552E-02    0.273E-02
RMM:   2    -0.672237400892E+03   -0.13827E-04   -0.38084E-05 13182   0.143E-02    0.989E-02
RMM:   3    -0.672237383376E+03    0.17516E-04   -0.10414E-05 11702   0.997E-03    0.198E-02
RMM:   4    -0.672237390744E+03   -0.73684E-05   -0.28630E-06 10711   0.403E-03    0.190E-02
RMM:   5    -0.672237393338E+03   -0.25933E-05   -0.18236E-06  9731   0.409E-03    0.980E-03
RMM:   6    -0.672237394731E+03   -0.13933E-05   -0.55235E-07  7773   0.240E-03
  17 F= -.67498411E+03 E0= -.67497685E+03  d E =-.935864E-03  mag=    -0.5637
 curvature:  -1.82 expect dE=-0.129E-02 dE for cont linesearch -0.145E-05
 trial: gam= 0.47643 g(F)=  0.708E-03 g(S)=  0.000E+00 ort = 0.636E-04 (trialstep = 0.110E+01)
 search vector abs. value=  0.192E-02
 bond charge predicted
       N       E                     dE             d eps       ncg     rms          rms(c)
DAV:   1    -0.672237601027E+03   -0.20769E-03   -0.14805E-01 19616   0.920E-01    0.789E-02
RMM:   2    -0.672237747225E+03   -0.14620E-03   -0.24086E-03 19226   0.124E-01    0.532E-02
RMM:   3    -0.672237782230E+03   -0.35005E-04   -0.50902E-04 21858   0.571E-02    0.378E-02
RMM:   4    -0.672237803017E+03   -0.20787E-04   -0.10188E-04 18372   0.252E-02    0.402E-02
RMM:   5    -0.672237804442E+03   -0.14253E-05   -0.20110E-05 12269   0.124E-02    0.262E-02
RMM:   6    -0.672237814330E+03   -0.98882E-05   -0.84286E-06 11746   0.900E-03
  18 F= -.67498465E+03 E0= -.67497739E+03  d E =-.538065E-03  mag=    -0.5656
 trial-energy change:   -0.000538  1 .order   -0.000540   -0.000813   -0.000268
 step:   1.6428(harm=  1.6428)  dis= 0.00301  next Energy=  -674.984717 (dE=-0.606E-03)
 bond charge predicted
       N       E                     dE             d eps       ncg     rms          rms(c)
DAV:   1    -0.672237762124E+03    0.42318E-04   -0.35688E-02 19616   0.451E-01    0.373E-02
RMM:   2    -0.672237793747E+03   -0.31623E-04   -0.58997E-04 19220   0.615E-02    0.564E-02
RMM:   3    -0.672237796915E+03   -0.31679E-05   -0.13023E-04 18909   0.285E-02    0.289E-02
RMM:   4    -0.672237802016E+03   -0.51004E-05   -0.22333E-05 12437   0.140E-02    0.248E-02
RMM:   5    -0.672237816082E+03   -0.14066E-04   -0.24405E-05 12417   0.107E-02    0.217E-02
RMM:   6    -0.672237819239E+03   -0.31574E-05   -0.48718E-06 11648   0.672E-03
  19 F= -.67498471E+03 E0= -.67497745E+03  d E =-.600468E-03  mag=    -0.5669
 curvature:  -2.14 expect dE=-0.211E-02 dE for cont linesearch -0.553E-06
 trial: gam= 1.47638 g(F)=  0.988E-03 g(S)=  0.000E+00 ort =-0.223E-04 (trialstep = 0.455E+00)
 search vector abs. value=  0.511E-02
 bond charge predicted
       N       E                     dE             d eps       ncg     rms          rms(c)
DAV:   1    -0.672237982023E+03   -0.16594E-03   -0.61897E-02 19536   0.599E-01    0.479E-02
RMM:   2    -0.672238045058E+03   -0.63034E-04   -0.99693E-04 19204   0.824E-02    0.981E-02
RMM:   3    -0.672238048173E+03   -0.31153E-05   -0.24397E-04 20431   0.391E-02    0.386E-02
RMM:   4    -0.672238054207E+03   -0.60337E-05   -0.41225E-05 13713   0.178E-02    0.346E-02
RMM:   5    -0.672238067734E+03   -0.13527E-04   -0.30065E-05 13249   0.121E-02    0.336E-02
RMM:   6    -0.672238076272E+03   -0.85380E-05   -0.11448E-05 11920   0.895E-03
  20 F= -.67498505E+03 E0= -.67497778E+03  d E =-.334917E-03  mag=    -0.5683
 trial-energy change:   -0.000335  1 .order   -0.000341   -0.000434   -0.000248
 step:   1.0572(harm=  1.0572)  dis= 0.00321  next Energy=  -674.985216 (dE=-0.505E-03)
 bond charge predicted
       N       E                     dE             d eps       ncg     rms          rms(c)
DAV:   1    -0.672237948047E+03    0.11969E-03   -0.10845E-01 19504   0.793E-01    0.640E-02
RMM:   2    -0.672238064251E+03   -0.11620E-03   -0.17606E-03 19205   0.109E-01    0.117E-01
RMM:   3    -0.672238078615E+03   -0.14363E-04   -0.43355E-04 21346   0.516E-02    0.487E-02
RMM:   4    -0.672238087605E+03   -0.89905E-05   -0.70713E-05 15436   0.224E-02    0.464E-02
RMM:   5    -0.672238107338E+03   -0.19733E-04   -0.51580E-05 16468   0.154E-02    0.431E-02
RMM:   6    -0.672238119476E+03   -0.12138E-04   -0.19412E-05 12450   0.107E-02    0.169E-02
RMM:   7    -0.672238121545E+03   -0.20685E-05   -0.34342E-06 11708   0.609E-03
  21 F= -.67498519E+03 E0= -.67497792E+03  d E =-.483735E-03  mag=    -0.5696
 curvature:  -2.83 expect dE=-0.181E-02 dE for cont linesearch -0.180E-05
 trial: gam= 0.56298 g(F)=  0.640E-03 g(S)=  0.000E+00 ort =-0.571E-04 (trialstep = 0.575E+00)
 search vector abs. value=  0.220E-02
 bond charge predicted
       N       E                     dE             d eps       ncg     rms          rms(c)
DAV:   1    -0.672238243126E+03   -0.12365E-03   -0.43314E-02 19728   0.501E-01    0.422E-02
RMM:   2    -0.672238289498E+03   -0.46372E-04   -0.72888E-04 19203   0.678E-02    0.930E-02
RMM:   3    -0.672238284410E+03    0.50885E-05   -0.15406E-04 19707   0.327E-02    0.291E-02
RMM:   4    -0.672238290628E+03   -0.62180E-05   -0.31706E-05 13174   0.153E-02    0.221E-02
RMM:   5    -0.672238305135E+03   -0.14507E-04   -0.32028E-05 14601   0.122E-02    0.227E-02
RMM:   6    -0.672238307941E+03   -0.28066E-05   -0.57127E-06 11709   0.747E-03
  22 F= -.67498544E+03 E0= -.67497815E+03  d E =-.241810E-03  mag=    -0.5700
 trial-energy change:   -0.000242  1 .order   -0.000238   -0.000350   -0.000127
 step:   0.9018(harm=  0.9018)  dis= 0.00151  next Energy=  -674.985469 (dE=-0.274E-03)
 bond charge predicted
       N       E                     dE             d eps       ncg     rms          rms(c)
DAV:   1    -0.672238290011E+03    0.15124E-04   -0.13930E-02 19968   0.285E-01    0.228E-02
RMM:   2    -0.672238299529E+03   -0.95177E-05   -0.23969E-04 19203   0.394E-02    0.347E-02
RMM:   3    -0.672238299901E+03   -0.37278E-06   -0.50384E-05 14959   0.187E-02    0.182E-02
RMM:   4    -0.672238303144E+03   -0.32425E-05   -0.96120E-06 11900   0.957E-03    0.125E-02
RMM:   5    -0.672238311975E+03   -0.88311E-05   -0.12612E-05 11659   0.759E-03    0.917E-03
RMM:   6    -0.672238312575E+03   -0.60054E-06   -0.17059E-06 11234   0.430E-03
  23 F= -.67498547E+03 E0= -.67497819E+03  d E =-.277606E-03  mag=    -0.5702
 curvature:  -1.63 expect dE=-0.404E-03 dE for cont linesearch -0.279E-06
 trial: gam= 0.37860 g(F)=  0.248E-03 g(S)=  0.000E+00 ort =-0.194E-04 (trialstep = 0.641E+00)
 search vector abs. value=  0.548E-03
 bond charge predicted
       N       E                     dE             d eps       ncg     rms          rms(c)
DAV:   1    -0.672238395404E+03   -0.83429E-04   -0.12043E-02 19936   0.262E-01    0.216E-02
RMM:   2    -0.672238399262E+03   -0.38578E-05   -0.18632E-04 19200   0.343E-02    0.318E-02
RMM:   3    -0.672238397883E+03    0.13788E-05   -0.33671E-05 13799   0.156E-02    0.158E-02
RMM:   4    -0.672238400595E+03   -0.27119E-05   -0.77951E-06 11480   0.842E-03    0.115E-02
RMM:   5    -0.672238408429E+03   -0.78343E-05   -0.10154E-05 11407   0.705E-03    0.515E-03
RMM:   6    -0.672238409718E+03   -0.12883E-05   -0.17224E-06 11050   0.465E-03
  24 F= -.67498560E+03 E0= -.67497831E+03  d E =-.123809E-03  mag=    -0.5703
 trial-energy change:   -0.000124  1 .order   -0.000124   -0.000154   -0.000093
 step:   1.6218(harm=  1.6218)  dis= 0.00142  next Energy=  -674.985667 (dE=-0.195E-03)
 bond charge predicted
       N       E                     dE             d eps       ncg     rms          rms(c)
DAV:   1    -0.672238405049E+03    0.33804E-05   -0.28277E-02 19808   0.402E-01    0.334E-02
RMM:   2    -0.672238419888E+03   -0.14839E-04   -0.43951E-04 19207   0.526E-02    0.327E-02
RMM:   3    -0.672238423559E+03   -0.36710E-05   -0.81551E-05 17168   0.238E-02    0.358E-02
RMM:   4    -0.672238423362E+03    0.19687E-06   -0.17791E-05 12249   0.123E-02    0.175E-02
RMM:   5    -0.672238434920E+03   -0.11557E-04   -0.19284E-05 11791   0.977E-03    0.737E-03
RMM:   6    -0.672238437597E+03   -0.26776E-05   -0.34151E-06 11501   0.638E-03
  25 F= -.67498566E+03 E0= -.67497839E+03  d E =-.192764E-03  mag=    -0.5709
 curvature:  -1.85 expect dE=-0.524E-03 dE for cont linesearch -0.181E-08
 trial: gam= 1.13715 g(F)=  0.284E-03 g(S)=  0.000E+00 ort =-0.733E-06 (trialstep = 0.463E+00)
 search vector abs. value=  0.991E-03
 bond charge predicted
       N       E                     dE             d eps       ncg     rms          rms(c)
DAV:   1    -0.672238525083E+03   -0.90164E-04   -0.10588E-02 19808   0.242E-01    0.214E-02
RMM:   2    -0.672238523683E+03    0.14004E-05   -0.14272E-04 19188   0.296E-02    0.157E-02
RMM:   3    -0.672238526014E+03   -0.23311E-05   -0.25426E-05 13081   0.137E-02    0.322E-02
RMM:   4    -0.672238527236E+03   -0.12222E-05   -0.66689E-06 11642   0.819E-03    0.945E-03
RMM:   5    -0.672238536235E+03   -0.89988E-05   -0.58661E-06 11422   0.568E-03    0.410E-03
RMM:   6    -0.672238536669E+03   -0.43370E-06   -0.12547E-06 11040   0.394E-03
  26 F= -.67498578E+03 E0= -.67497851E+03  d E =-.119012E-03  mag=    -0.5716
 ZBRENT: can't locate minimum, use default step
 trial-energy change:   -0.000119  1 .order   -0.000117   -0.000131   -0.000103
 step:   1.8513(harm=  2.1982)  dis= 0.00226  next Energy=  -674.985976 (dE=-0.311E-03)
 bond charge predicted
       N       E                     dE             d eps       ncg     rms          rms(c)
DAV:   1    -0.672238587954E+03   -0.51719E-04   -0.95184E-02 19648   0.725E-01    0.666E-02
RMM:   2    -0.672238640186E+03   -0.52232E-04   -0.12665E-03 19217   0.875E-02    0.582E-02
RMM:   3    -0.672238654636E+03   -0.14450E-04   -0.23881E-04 20609   0.405E-02    0.104E-01
RMM:   4    -0.672238644906E+03    0.97295E-05   -0.58248E-05 16055   0.206E-02    0.282E-02
RMM:   5    -0.672238675957E+03   -0.31051E-04   -0.51261E-05 16584   0.154E-02    0.186E-02
RMM:   6    -0.672238680175E+03   -0.42174E-05   -0.69306E-06 11724   0.768E-03
  27 F= -.67498599E+03 E0= -.67497872E+03  d E =-.322497E-03  mag=    -0.5735
 curvature:  -3.69 expect dE=-0.897E-03 dE for cont linesearch -0.191E-04
 ZBRENT: extrapolating
 opt :   2.5045  next Energy=  -674.986011 (dE=-0.346E-03)
 bond charge predicted
       N       E                     dE             d eps       ncg     rms          rms(c)
DAV:   1    -0.672238653799E+03    0.22158E-04   -0.21157E-02 19760   0.342E-01    0.305E-02
RMM:   2    -0.672238657639E+03   -0.38403E-05   -0.28851E-04 19220   0.422E-02    0.217E-02
RMM:   3    -0.672238662517E+03   -0.48775E-05   -0.53098E-05 15587   0.192E-02    0.440E-02
RMM:   4    -0.672238662628E+03   -0.11150E-06   -0.12025E-05 11827   0.106E-02    0.130E-02
RMM:   5    -0.672238676233E+03   -0.13605E-04   -0.10787E-05 11714   0.767E-03    0.720E-03
RMM:   6    -0.672238677357E+03   -0.11240E-05   -0.20165E-06 11371   0.488E-03
  28 F= -.67498601E+03 E0= -.67497876E+03  d E =-.347823E-03  mag=    -0.5748
 curvature:  -4.53 expect dE=-0.188E-02 dE for cont linesearch -0.240E-06
 trial: gam= 1.49308 g(F)=  0.415E-03 g(S)=  0.000E+00 ort =-0.725E-05 (trialstep = 0.332E+00)
 search vector abs. value=  0.260E-02
 bond charge predicted
       N       E                     dE             d eps       ncg     rms          rms(c)
DAV:   1    -0.672238770236E+03   -0.94003E-04   -0.14237E-02 19808   0.278E-01    0.220E-02
RMM:   2    -0.672238770319E+03   -0.83004E-07   -0.19486E-04 19257   0.339E-02    0.168E-02
RMM:   3    -0.672238774714E+03   -0.43955E-05   -0.32834E-05 13777   0.151E-02    0.125E-02
RMM:   4    -0.672238779101E+03   -0.43867E-05   -0.80171E-06 11801   0.871E-03    0.303E-02
RMM:   5    -0.672238783561E+03   -0.44602E-05   -0.54037E-06 11435   0.628E-03    0.370E-03
RMM:   6    -0.672238785865E+03   -0.23037E-05   -0.11834E-06 11119   0.354E-03
  29 F= -.67498614E+03 E0= -.67497888E+03  d E =-.123122E-03  mag=    -0.5749
 ZBRENT: can't locate minimum, use default step
 trial-energy change:   -0.000123  1 .order   -0.000121   -0.000134   -0.000107
 step:   1.3267(harm=  1.6434)  dis= 0.00306  next Energy=  -674.986345 (dE=-0.332E-03)
 bond charge predicted
       N       E                     dE             d eps       ncg     rms          rms(c)
DAV:   1    -0.672238809842E+03   -0.26281E-04   -0.12801E-01 19616   0.835E-01    0.648E-02
RMM:   2    -0.672238885621E+03   -0.75779E-04   -0.17413E-03 19229   0.101E-01    0.499E-02
RMM:   3    -0.672238901208E+03   -0.15587E-04   -0.29384E-04 20170   0.450E-02    0.551E-02
RMM:   4    -0.672238903265E+03   -0.20563E-05   -0.73838E-05 16731   0.223E-02    0.431E-02
RMM:   5    -0.672238932692E+03   -0.29428E-04   -0.43830E-05 16044   0.159E-02    0.139E-02
RMM:   6    -0.672238939432E+03   -0.67392E-05   -0.72817E-06 11767   0.798E-03
  30 F= -.67498633E+03 E0= -.67497908E+03  d E =-.321303E-03  mag=    -0.5752
 curvature:  -4.98 expect dE=-0.120E-02 dE for cont linesearch -0.120E-04
 ZBRENT: extrapolating
 opt :   1.6508  next Energy=  -674.986347 (dE=-0.334E-03)
 bond charge predicted
       N       E                     dE             d eps       ncg     rms          rms(c)
DAV:   1    -0.672238925157E+03    0.75355E-05   -0.13652E-02 19744   0.273E-01    0.227E-02
RMM:   2    -0.672238925850E+03   -0.69260E-06   -0.19173E-04 19258   0.339E-02    0.174E-02
RMM:   3    -0.672238929476E+03   -0.36267E-05   -0.32492E-05 13730   0.149E-02    0.221E-02
RMM:   4    -0.672238933031E+03   -0.35543E-05   -0.77663E-06 11758   0.837E-03    0.197E-02
RMM:   5    -0.672238942271E+03   -0.92406E-05   -0.62647E-06 11695   0.640E-03    0.368E-03
RMM:   6    -0.672238943194E+03   -0.92266E-06   -0.13774E-06 11310   0.408E-03
  31 F= -.67498635E+03 E0= -.67497910E+03  d E =-.339308E-03  mag=    -0.5756
 curvature:  -5.32 expect dE=-0.183E-02 dE for cont linesearch -0.288E-07
 trial: gam= 0.81106 g(F)=  0.344E-03 g(S)=  0.000E+00 ort =-0.375E-05 (trialstep = 0.595E+00)
 search vector abs. value=  0.205E-02
 bond charge predicted
       N       E                     dE             d eps       ncg     rms          rms(c)
DAV:   1    -0.672239047720E+03   -0.10545E-03   -0.37179E-02 19680   0.449E-01    0.416E-02
RMM:   2    -0.672239073070E+03   -0.25350E-04   -0.55172E-04 19234   0.578E-02    0.826E-02
RMM:   3    -0.672239064664E+03    0.84055E-05   -0.98229E-05 17971   0.273E-02    0.321E-02
RMM:   4    -0.672239070489E+03   -0.58246E-05   -0.24622E-05 12762   0.133E-02    0.181E-02
RMM:   5    -0.672239088167E+03   -0.17678E-04   -0.25037E-05 12467   0.107E-02    0.190E-02
RMM:   6    -0.672239089266E+03   -0.10985E-05   -0.34340E-06 11674   0.628E-03
  32 F= -.67498652E+03 E0= -.67497927E+03  d E =-.168063E-03  mag=    -0.5744
 trial-energy change:   -0.000168  1 .order   -0.000169   -0.000203   -0.000134
 step:   1.7631(harm=  1.7631)  dis= 0.00381  next Energy=  -674.986652 (dE=-0.300E-03)
 bond charge predicted
       N       E                     dE             d eps       ncg     rms          rms(c)
DAV:   1    -0.672239014532E+03    0.73635E-04   -0.14285E-01 19616   0.881E-01    0.780E-02
RMM:   2    -0.672239139053E+03   -0.12452E-03   -0.21057E-03 19224   0.113E-01    0.140E-01
RMM:   3    -0.672239131598E+03    0.74547E-05   -0.38056E-04 20841   0.524E-02    0.633E-02
RMM:   4    -0.672239135405E+03   -0.38066E-05   -0.90157E-05 18915   0.241E-02    0.355E-02
RMM:   5    -0.672239177181E+03   -0.41776E-04   -0.92779E-05 18061   0.199E-02    0.491E-02
RMM:   6    -0.672239177569E+03   -0.38810E-06   -0.13405E-05 12029   0.111E-02
  33 F= -.67498665E+03 E0= -.67497940E+03  d E =-.299476E-03  mag=    -0.5722
 curvature:  -5.30 expect dE=-0.174E-02 dE for cont linesearch -0.380E-06
 trial: gam= 0.95625 g(F)=  0.329E-03 g(S)=  0.000E+00 ort = 0.121E-04 (trialstep = 0.763E+00)
 search vector abs. value=  0.223E-02
 bond charge predicted
       N       E                     dE             d eps       ncg     rms          rms(c)
DAV:   1    -0.672239260267E+03   -0.83087E-04   -0.68014E-02 19584   0.602E-01    0.618E-02
RMM:   2    -0.672239324153E+03   -0.63885E-04   -0.11026E-03 19279   0.819E-02    0.910E-02
RMM:   3    -0.672239324154E+03   -0.17317E-08   -0.20695E-04 19955   0.381E-02    0.687E-02
RMM:   4    -0.672239328298E+03   -0.41440E-05   -0.44273E-05 14211   0.180E-02    0.272E-02
RMM:   5    -0.672239354582E+03   -0.26284E-04   -0.37425E-05 14728   0.137E-02    0.225E-02
RMM:   6    -0.672239358921E+03   -0.43388E-05   -0.63845E-06 11756   0.786E-03
  34 F= -.67498684E+03 E0= -.67497958E+03  d E =-.189437E-03  mag=    -0.5694
 trial-energy change:   -0.000189  1 .order   -0.000185   -0.000260   -0.000111
 step:   1.3332(harm=  1.3332)  dis= 0.00307  next Energy=  -674.986878 (dE=-0.227E-03)
 bond charge predicted
       N       E                     dE             d eps       ncg     rms          rms(c)
DAV:   1    -0.672239339994E+03    0.14588E-04   -0.37931E-02 19584   0.449E-01    0.471E-02
RMM:   2    -0.672239374090E+03   -0.34096E-04   -0.62186E-04 19282   0.614E-02    0.770E-02
RMM:   3    -0.672239370494E+03    0.35966E-05   -0.11680E-04 18332   0.290E-02    0.494E-02
RMM:   4    -0.672239373980E+03   -0.34860E-05   -0.24805E-05 12907   0.140E-02    0.207E-02
RMM:   5    -0.672239392038E+03   -0.18059E-04   -0.23857E-05 12615   0.109E-02    0.138E-02
RMM:   6    -0.672239394494E+03   -0.24560E-05   -0.34708E-06 11671   0.627E-03
  35 F= -.67498688E+03 E0= -.67497962E+03  d E =-.230910E-03  mag=    -0.5672
 curvature:  -4.36 expect dE=-0.205E-02 dE for cont linesearch -0.249E-07
 trial: gam= 1.47913 g(F)=  0.470E-03 g(S)=  0.000E+00 ort =-0.357E-05 (trialstep = 0.366E+00)
 search vector abs. value=  0.533E-02
 bond charge predicted
       N       E                     dE             d eps       ncg     rms          rms(c)
DAV:   1    -0.672239490156E+03   -0.98117E-04   -0.38879E-02 19576   0.451E-01    0.548E-02
RMM:   2    -0.672239529593E+03   -0.39438E-04   -0.62660E-04 19276   0.607E-02    0.994E-02
RMM:   3    -0.672239518312E+03    0.11281E-04   -0.11553E-04 18159   0.299E-02    0.577E-02
RMM:   4    -0.672239523627E+03   -0.53145E-05   -0.26592E-05 13058   0.143E-02    0.185E-02
RMM:   5    -0.672239541409E+03   -0.17782E-04   -0.23023E-05 12510   0.106E-02    0.137E-02
RMM:   6    -0.672239542871E+03   -0.14625E-05   -0.35519E-06 11654   0.637E-03
  36 F= -.67498703E+03 E0= -.67497975E+03  d E =-.145175E-03  mag=    -0.5649
 trial-energy change:   -0.000145  1 .order   -0.000146   -0.000170   -0.000121
 step:   1.2670(harm=  1.2670)  dis= 0.00470  next Energy=  -674.987177 (dE=-0.295E-03)
 bond charge predicted
       N       E                     dE             d eps       ncg     rms          rms(c)
DAV:   1    -0.672239380308E+03    0.16110E-03   -0.23456E-01 19488   0.111E+00    0.139E-01
RMM:   2    -0.672239695483E+03   -0.31517E-03   -0.37866E-03 19260   0.149E-01    0.259E-01
RMM:   3    -0.672239642273E+03    0.53210E-04   -0.71745E-04 20700   0.742E-02    0.146E-01
RMM:   4    -0.672239640407E+03    0.18663E-05   -0.16995E-04 20650   0.334E-02    0.454E-02
RMM:   5    -0.672239690485E+03   -0.50078E-04   -0.13032E-04 18570   0.232E-02    0.414E-02
RMM:   6    -0.672239694471E+03   -0.39861E-05   -0.18662E-05 12332   0.127E-02
  37 F= -.67498717E+03 E0= -.67497987E+03  d E =-.289899E-03  mag=    -0.5588
 curvature:  -7.26 expect dE=-0.248E-02 dE for cont linesearch -0.320E-06
 trial: gam= 0.64034 g(F)=  0.341E-03 g(S)=  0.000E+00 ort = 0.153E-04 (trialstep = 0.547E+00)
 search vector abs. value=  0.255E-02
 bond charge predicted
       N       E                     dE             d eps       ncg     rms          rms(c)
DAV:   1    -0.672239805868E+03   -0.11538E-03   -0.40942E-02 19584   0.462E-01    0.432E-02
RMM:   2    -0.672239838017E+03   -0.32148E-04   -0.66016E-04 19242   0.609E-02    0.411E-02
RMM:   3    -0.672239846721E+03   -0.87042E-05   -0.11458E-04 18001   0.283E-02    0.703E-02
RMM:   4    -0.672239847751E+03   -0.10304E-05   -0.23257E-05 12758   0.135E-02    0.360E-02
RMM:   5    -0.672239865704E+03   -0.17953E-04   -0.20900E-05 12121   0.106E-02    0.208E-02
RMM:   6    -0.672239870463E+03   -0.47585E-05   -0.35521E-06 11692   0.655E-03
  38 F= -.67498734E+03 E0= -.67498004E+03  d E =-.165015E-03  mag=    -0.5572
 trial-energy change:   -0.000165  1 .order   -0.000158   -0.000192   -0.000125
 step:   1.5549(harm=  1.5549)  dis= 0.00409  next Energy=  -674.987445 (dE=-0.273E-03)
 bond charge predicted
       N       E                     dE             d eps       ncg     rms          rms(c)
DAV:   1    -0.672239805237E+03    0.60467E-04   -0.13851E-01 19536   0.849E-01    0.842E-02
RMM:   2    -0.672239947206E+03   -0.14197E-03   -0.22009E-03 19202   0.113E-01    0.102E-01
RMM:   3    -0.672239967849E+03   -0.20643E-04   -0.41723E-04 21087   0.550E-02    0.129E-01
RMM:   4    -0.672239962257E+03    0.55920E-05   -0.86322E-05 16854   0.232E-02    0.704E-02
RMM:   5    -0.672239990687E+03   -0.28430E-04   -0.62509E-05 17026   0.175E-02    0.303E-02
RMM:   6    -0.672240002031E+03   -0.11344E-04   -0.10475E-05 11830   0.907E-03    0.151E-02
RMM:   7    -0.672240003541E+03   -0.15096E-05   -0.26884E-06 11707   0.560E-03
  39 F= -.67498745E+03 E0= -.67498014E+03  d E =-.277673E-03  mag=    -0.5542
 curvature:  -5.64 expect dE=-0.232E-02 dE for cont linesearch -0.544E-06
 trial: gam= 1.26427 g(F)=  0.411E-03 g(S)=  0.000E+00 ort =-0.157E-04 (trialstep = 0.429E+00)
 search vector abs. value=  0.444E-02
 bond charge predicted
       N       E                     dE             d eps       ncg     rms          rms(c)
DAV:   1    -0.672240124183E+03   -0.12215E-03   -0.44720E-02 19472   0.478E-01    0.389E-02
RMM:   2    -0.672240157880E+03   -0.33698E-04   -0.71593E-04 19224   0.625E-02    0.280E-02
RMM:   3    -0.672240169961E+03   -0.12081E-04   -0.11399E-04 18258   0.280E-02    0.335E-02
RMM:   4    -0.672240170411E+03   -0.44946E-06   -0.21984E-05 12655   0.136E-02    0.203E-02
RMM:   5    -0.672240185044E+03   -0.14633E-04   -0.13024E-05 11853   0.885E-03    0.288E-02
RMM:   6    -0.672240190850E+03   -0.58063E-05   -0.44933E-06 11605   0.605E-03
  40 F= -.67498761E+03 E0= -.67498030E+03  d E =-.157679E-03  mag=    -0.5544
 ZBRENT: can't locate minimum, use default step
 trial-energy change:   -0.000158  1 .order   -0.000157   -0.000168   -0.000145
 step:   1.7159(harm=  3.1951)  dis= 0.00613  next Energy=  -674.988075 (dE=-0.625E-03)
 bond charge predicted
       N       E                     dE             d eps       ncg     rms          rms(c)
DAV:   1    -0.672239939004E+03    0.24604E-03   -0.40184E-01 19440   0.143E+00    0.116E-01
RMM:   2    -0.672240364371E+03   -0.42537E-03   -0.64388E-03 19220   0.188E-01    0.908E-02
RMM:   3    -0.672240448375E+03   -0.84003E-04   -0.10156E-03 21175   0.812E-02    0.922E-02
RMM:   4    -0.672240476136E+03   -0.27762E-04   -0.23029E-04 20685   0.384E-02    0.105E-01
RMM:   5    -0.672240517852E+03   -0.41716E-04   -0.10283E-04 18302   0.252E-02    0.108E-01
RMM:   6    -0.672240532775E+03   -0.14923E-04   -0.56749E-05 15325   0.186E-02    0.142E-02
RMM:   7    -0.672240543425E+03   -0.10650E-04   -0.10203E-05 12018   0.818E-03    0.179E-02
RMM:   8    -0.672240548445E+03   -0.50197E-05   -0.38036E-06 11718   0.481E-03
  41 F= -.67498788E+03 E0= -.67498056E+03  d E =-.425818E-03  mag=    -0.5549
 curvature: -12.96 expect dE=-0.482E-02 dE for cont linesearch -0.110E-04
 trial: gam= 0.69226 g(F)=  0.372E-03 g(S)=  0.000E+00 ort = 0.614E-04 (trialstep = 0.686E+00)
 search vector abs. value=  0.259E-02
 bond charge predicted
       N       E                     dE             d eps       ncg     rms          rms(c)
DAV:   1    -0.672240731741E+03   -0.18832E-03   -0.69847E-02 19424   0.593E-01    0.596E-02
RMM:   2    -0.672240795737E+03   -0.63995E-04   -0.11709E-03 19257   0.776E-02    0.491E-02
RMM:   3    -0.672240812773E+03   -0.17036E-04   -0.18117E-04 19110   0.353E-02    0.103E-01
RMM:   4    -0.672240805908E+03    0.68643E-05   -0.40663E-05 13985   0.176E-02    0.442E-02
RMM:   5    -0.672240828181E+03   -0.22273E-04   -0.34849E-05 14336   0.132E-02    0.193E-02
RMM:   6    -0.672240834449E+03   -0.62677E-05   -0.55649E-06 11702   0.733E-03
  42 F= -.67498810E+03 E0= -.67498078E+03  d E =-.228486E-03  mag=    -0.5573
 trial-energy change:   -0.000228  1 .order   -0.000229   -0.000285   -0.000174
 step:   1.7582(harm=  1.7582)  dis= 0.00469  next Energy=  -674.988240 (dE=-0.365E-03)
 bond charge predicted
       N       E                     dE             d eps       ncg     rms          rms(c)
DAV:   1    -0.672240768323E+03    0.59858E-04   -0.16987E-01 19424   0.925E-01    0.902E-02
RMM:   2    -0.672240942810E+03   -0.17449E-03   -0.28417E-03 19231   0.121E-01    0.619E-02
RMM:   3    -0.672240996808E+03   -0.53998E-04   -0.44541E-04 20950   0.549E-02    0.160E-01
RMM:   4    -0.672240974565E+03    0.22243E-04   -0.96874E-05 17334   0.258E-02    0.645E-02
RMM:   5    -0.672241013129E+03   -0.38564E-04   -0.69289E-05 17247   0.184E-02    0.211E-02
RMM:   6    -0.672241027491E+03   -0.14362E-04   -0.14070E-05 12099   0.942E-03    0.264E-02
RMM:   7    -0.672241028787E+03   -0.12955E-05   -0.28985E-06 11711   0.566E-03
  43 F= -.67498821E+03 E0= -.67498088E+03  d E =-.332173E-03  mag=    -0.5610
 curvature:  -5.48 expect dE=-0.387E-02 dE for cont linesearch -0.698E-05
 trial: gam= 2.30250 g(F)=  0.707E-03 g(S)=  0.000E+00 ort =-0.574E-04 (trialstep = 0.165E+00)
 search vector abs. value=  0.142E-01
 bond charge predicted
       N       E                     dE             d eps       ncg     rms          rms(c)
DAV:   1    -0.672241118891E+03   -0.91399E-04   -0.22036E-02 19568   0.329E-01    0.329E-02
RMM:   2    -0.672241130927E+03   -0.12037E-04   -0.35646E-04 19263   0.427E-02    0.299E-02
RMM:   3    -0.672241134336E+03   -0.34091E-05   -0.52598E-05 14841   0.192E-02    0.500E-02
RMM:   4    -0.672241136065E+03   -0.17283E-05   -0.12024E-05 12044   0.107E-02    0.158E-02
RMM:   5    -0.672241150831E+03   -0.14766E-04   -0.11141E-05 11709   0.781E-03    0.884E-03
RMM:   6    -0.672241152722E+03   -0.18913E-05   -0.23321E-06 11287   0.526E-03
  44 F= -.67498830E+03 E0= -.67498098E+03  d E =-.956095E-04  mag=    -0.5623
 ZBRENT: can't locate minimum, use default step
 trial-energy change:   -0.000096  1 .order   -0.000090   -0.000095   -0.000086
 step:   0.6584(harm=  1.8701)  dis= 0.00408  next Energy=  -674.988745 (dE=-0.537E-03)
 bond charge predicted
       N       E                     dE             d eps       ncg     rms          rms(c)
DAV:   1    -0.672241126210E+03    0.24621E-04   -0.19757E-01 19472   0.985E-01    0.914E-02
RMM:   2    -0.672241319062E+03   -0.19285E-03   -0.31787E-03 19266   0.127E-01    0.613E-02
RMM:   3    -0.672241368489E+03   -0.49427E-04   -0.47060E-04 20760   0.551E-02    0.129E-01
RMM:   4    -0.672241357735E+03    0.10754E-04   -0.10593E-04 17538   0.265E-02    0.393E-02
RMM:   5    -0.672241407885E+03   -0.50150E-04   -0.63685E-05 16959   0.182E-02    0.245E-02
RMM:   6    -0.672241420274E+03   -0.12390E-04   -0.16574E-05 12324   0.108E-02    0.291E-02
RMM:   7    -0.672241423658E+03   -0.33836E-05   -0.47904E-06 11735   0.681E-03
  45 F= -.67498849E+03 E0= -.67498117E+03  d E =-.279414E-03  mag=    -0.5649
 curvature: -11.40 expect dE=-0.779E-02 dE for cont linesearch -0.312E-04
 ZBRENT: increasing intervall
 opt :   1.6459  next Energy=  -674.988358 (dE=-0.150E-03)
 bond charge predicted
       N       E                     dE             d eps       ncg     rms          rms(c)
DAV:   1    -0.672240363387E+03    0.10569E-02   -0.79074E-01 19432   0.197E+00    0.183E-01
RMM:   2    -0.672241225564E+03   -0.86218E-03   -0.12734E-02 19254   0.254E-01    0.122E-01
RMM:   3    -0.672241434175E+03   -0.20861E-03   -0.18949E-03 21092   0.111E-01    0.263E-01
RMM:   4    -0.672241394639E+03    0.39536E-04   -0.44599E-04 21870   0.526E-02    0.784E-02
RMM:   5    -0.672241512619E+03   -0.11798E-03   -0.24427E-04 18781   0.335E-02    0.462E-02
RMM:   6    -0.672241546081E+03   -0.33462E-04   -0.59030E-05 14797   0.194E-02    0.566E-02
RMM:   7    -0.672241551505E+03   -0.54245E-05   -0.16565E-05 12401   0.103E-02
  46 F= -.67498844E+03 E0= -.67498113E+03  d E =-.234190E-03  mag=    -0.5707
 curvature:  47.17 expect dE= 0.834E-01 dE for cont linesearch  0.489E-03
 ZBRENT: bracketing found
 ZBRENT: interpolating
 opt :   0.9935  next Energy=  -674.988520 (dE=-0.312E-03)
 bond charge predicted
       N       E                     dE             d eps       ncg     rms          rms(c)
DAV:   1    -0.672241033314E+03    0.51277E-03   -0.34364E-01 19424   0.130E+00    0.127E-01
RMM:   2    -0.672241406349E+03   -0.37303E-03   -0.54933E-03 19254   0.167E-01    0.133E-01
RMM:   3    -0.672241466783E+03   -0.60434E-04   -0.84242E-04 21317   0.757E-02    0.183E-01
RMM:   4    -0.672241439226E+03    0.27557E-04   -0.19231E-04 20693   0.350E-02    0.628E-02
RMM:   5    -0.672241510708E+03   -0.71482E-04   -0.15598E-04 18400   0.253E-02    0.158E-02
RMM:   6    -0.672241523467E+03   -0.12759E-04   -0.21574E-05 12589   0.122E-02    0.409E-02
RMM:   7    -0.672241526524E+03   -0.30568E-05   -0.63900E-06 11761   0.696E-03
  47 F= -.67498853E+03 E0= -.67498121E+03  d E =-.324153E-03  mag=    -0.5675
 curvature:  -3.18 expect dE=-0.282E-02 dE for cont linesearch -0.243E-05
 trial: gam= 0.59122 g(F)=  0.885E-03 g(S)=  0.000E+00 ort = 0.104E-03 (trialstep = 0.330E+00)
 search vector abs. value=  0.595E-02
 bond charge predicted
       N       E                     dE             d eps       ncg     rms          rms(c)
DAV:   1    -0.672241764896E+03   -0.24143E-03   -0.36645E-02 19408   0.431E-01    0.365E-02
RMM:   2    -0.672241793358E+03   -0.28462E-04   -0.57387E-04 19205   0.570E-02    0.295E-02
RMM:   3    -0.672241801208E+03   -0.78502E-05   -0.97784E-05 17178   0.268E-02    0.641E-02
RMM:   4    -0.672241797461E+03    0.37474E-05   -0.20136E-05 12518   0.130E-02    0.248E-02
RMM:   5    -0.672241808122E+03   -0.10661E-04   -0.15853E-05 11909   0.928E-03    0.128E-02
RMM:   6    -0.672241813958E+03   -0.58358E-05   -0.36469E-06 11044   0.600E-03
  48 F= -.67498880E+03 E0= -.67498149E+03  d E =-.267921E-03  mag=    -0.5672
 trial-energy change:   -0.000268  1 .order   -0.000269   -0.000313   -0.000225
 step:   1.1747(harm=  1.1747)  dis= 0.00435  next Energy=  -674.989088 (dE=-0.556E-03)
 bond charge predicted
       N       E                     dE             d eps       ncg     rms          rms(c)
DAV:   1    -0.672241805024E+03    0.30973E-05   -0.24002E-01 19440   0.110E+00    0.989E-02
RMM:   2    -0.672242038468E+03   -0.23344E-03   -0.38014E-03 19208   0.147E-01    0.124E-01
RMM:   3    -0.672242065442E+03   -0.26974E-04   -0.68621E-04 21571   0.688E-02    0.108E-01
RMM:   4    -0.672242073556E+03   -0.81138E-05   -0.14489E-04 20175   0.290E-02    0.621E-02
RMM:   5    -0.672242128688E+03   -0.55132E-04   -0.12257E-04 18356   0.229E-02    0.151E-02
RMM:   6    -0.672242140597E+03   -0.11909E-04   -0.16356E-05 12044   0.105E-02    0.863E-03
RMM:   7    -0.672242145763E+03   -0.51661E-05   -0.39466E-06 11701   0.584E-03
  49 F= -.67498908E+03 E0= -.67498178E+03  d E =-.549566E-03  mag=    -0.5670
 curvature:  -3.70 expect dE=-0.237E-02 dE for cont linesearch -0.523E-06
 trial: gam= 0.84490 g(F)=  0.641E-03 g(S)=  0.000E+00 ort =-0.290E-04 (trialstep = 0.499E+00)
 search vector abs. value=  0.484E-02
 bond charge predicted
       N       E                     dE             d eps       ncg     rms          rms(c)
DAV:   1    -0.672242326781E+03   -0.18618E-03   -0.68215E-02 19328   0.582E-01    0.529E-02
RMM:   2    -0.672242386700E+03   -0.59919E-04   -0.11406E-03 19217   0.793E-02    0.835E-02
RMM:   3    -0.672242386085E+03    0.61449E-06   -0.20192E-04 19565   0.365E-02    0.394E-02
RMM:   4    -0.672242395812E+03   -0.97270E-05   -0.40414E-05 13810   0.166E-02    0.266E-02
RMM:   5    -0.672242424198E+03   -0.28386E-04   -0.41848E-05 15976   0.139E-02    0.269E-02
RMM:   6    -0.672242426476E+03   -0.22786E-05   -0.53717E-06 11721   0.701E-03
  50 F= -.67498933E+03 E0= -.67498203E+03  d E =-.248175E-03  mag=    -0.5668
 trial-energy change:   -0.000248  1 .order   -0.000245   -0.000308   -0.000181
 step:   1.2151(harm=  1.2151)  dis= 0.00394  next Energy=  -674.989456 (dE=-0.375E-03)
 bond charge predicted
       N       E                     dE             d eps       ncg     rms          rms(c)
DAV:   1    -0.672242369490E+03    0.54708E-04   -0.13995E-01 19360   0.835E-01    0.744E-02
RMM:   2    -0.672242501684E+03   -0.13219E-03   -0.23418E-03 19216   0.114E-01    0.848E-02
RMM:   3    -0.672242524170E+03   -0.22486E-04   -0.41762E-04 21053   0.518E-02    0.722E-02
RMM:   4    -0.672242533145E+03   -0.89753E-05   -0.79445E-05 15982   0.228E-02    0.385E-02
RMM:   5    -0.672242575186E+03   -0.42041E-04   -0.71084E-05 16935   0.182E-02    0.338E-02
RMM:   6    -0.672242583311E+03   -0.81242E-05   -0.13091E-05 12036   0.967E-03
  51 F= -.67498944E+03 E0= -.67498215E+03  d E =-.357421E-03  mag=    -0.5670
 curvature:  -4.77 expect dE=-0.328E-02 dE for cont linesearch -0.120E-05
 trial: gam= 1.11019 g(F)=  0.687E-03 g(S)=  0.000E+00 ort =-0.348E-04 (trialstep = 0.473E+00)
 search vector abs. value=  0.658E-02
 bond charge predicted
       N       E                     dE             d eps       ncg     rms          rms(c)
DAV:   1    -0.672242728630E+03   -0.15344E-03   -0.84874E-02 19392   0.649E-01    0.573E-02
RMM:   2    -0.672242804579E+03   -0.75949E-04   -0.13825E-03 19213   0.890E-02    0.740E-02
RMM:   3    -0.672242811730E+03   -0.71512E-05   -0.24765E-04 20150   0.402E-02    0.435E-02
RMM:   4    -0.672242825255E+03   -0.13525E-04   -0.51226E-05 14270   0.186E-02    0.383E-02
RMM:   5    -0.672242856598E+03   -0.31343E-04   -0.40068E-05 15274   0.144E-02    0.299E-02
RMM:   6    -0.672242864117E+03   -0.75197E-05   -0.83715E-06 11944   0.811E-03
  52 F= -.67498967E+03 E0= -.67498238E+03  d E =-.226871E-03  mag=    -0.5672
 trial-energy change:   -0.000227  1 .order   -0.000228   -0.000307   -0.000149
 step:   0.9227(harm=  0.9227)  dis= 0.00344  next Energy=  -674.989738 (dE=-0.299E-03)
 bond charge predicted
       N       E                     dE             d eps       ncg     rms          rms(c)
DAV:   1    -0.672242859978E+03   -0.33807E-05   -0.76672E-02 19392   0.617E-01    0.543E-02
RMM:   2    -0.672242926737E+03   -0.66759E-04   -0.12491E-03 19205   0.846E-02    0.636E-02
RMM:   3    -0.672242936456E+03   -0.97189E-05   -0.22472E-04 19982   0.383E-02    0.449E-02
RMM:   4    -0.672242947862E+03   -0.11406E-04   -0.46233E-05 13936   0.179E-02    0.371E-02
RMM:   5    -0.672242974747E+03   -0.26885E-04   -0.32143E-05 13901   0.132E-02    0.261E-02
RMM:   6    -0.672242984174E+03   -0.94276E-05   -0.80207E-06 11917   0.793E-03
  53 F= -.67498973E+03 E0= -.67498245E+03  d E =-.295282E-03  mag=    -0.5676
 curvature:  -4.68 expect dE=-0.210E-02 dE for cont linesearch -0.498E-11
 trial: gam= 0.53312 g(F)=  0.448E-03 g(S)=  0.000E+00 ort =-0.836E-07 (trialstep = 0.563E+00)
 search vector abs. value=  0.232E-02
 bond charge predicted
       N       E                     dE             d eps       ncg     rms          rms(c)
DAV:   1    -0.672243151581E+03   -0.17683E-03   -0.43259E-02 19344   0.466E-01    0.445E-02
RMM:   2    -0.672243193951E+03   -0.42371E-04   -0.74466E-04 19203   0.640E-02    0.871E-02
RMM:   3    -0.672243189313E+03    0.46385E-05   -0.13485E-04 18391   0.302E-02    0.285E-02
RMM:   4    -0.672243198597E+03   -0.92844E-05   -0.26181E-05 12910   0.142E-02    0.293E-02
RMM:   5    -0.672243222063E+03   -0.23466E-04   -0.30608E-05 13624   0.121E-02    0.247E-02
RMM:   6    -0.672243223733E+03   -0.16699E-05   -0.44552E-06 11630   0.683E-03
  54 F= -.67498992E+03 E0= -.67498263E+03  d E =-.186762E-03  mag=    -0.5676
 trial-energy change:   -0.000187  1 .order   -0.000190   -0.000252   -0.000128
 step:   1.1438(harm=  1.1438)  dis= 0.00264  next Energy=  -674.989990 (dE=-0.256E-03)
 bond charge predicted
       N       E                     dE             d eps       ncg     rms          rms(c)
DAV:   1    -0.672243269399E+03   -0.47336E-04   -0.46113E-02 19328   0.482E-01    0.427E-02
RMM:   2    -0.672243308683E+03   -0.39284E-04   -0.79008E-04 19204   0.658E-02    0.530E-02
RMM:   3    -0.672243314061E+03   -0.53781E-05   -0.13982E-04 18685   0.301E-02    0.339E-02
RMM:   4    -0.672243320991E+03   -0.69301E-05   -0.26627E-05 12860   0.146E-02    0.321E-02
RMM:   5    -0.672243341151E+03   -0.20160E-04   -0.27563E-05 12899   0.120E-02    0.297E-02
RMM:   6    -0.672243344428E+03   -0.32772E-05   -0.55060E-06 11678   0.736E-03
  55 F= -.67498999E+03 E0= -.67498270E+03  d E =-.253537E-03  mag=    -0.5677
 curvature:  -2.96 expect dE=-0.983E-03 dE for cont linesearch -0.256E-06
 trial: gam= 0.73575 g(F)=  0.332E-03 g(S)=  0.000E+00 ort = 0.142E-04 (trialstep = 0.679E+00)
 search vector abs. value=  0.161E-02
 bond charge predicted
       N       E                     dE             d eps       ncg     rms          rms(c)
DAV:   1    -0.672243489764E+03   -0.14861E-03   -0.42892E-02 19328   0.460E-01    0.448E-02
RMM:   2    -0.672243534383E+03   -0.44620E-04   -0.76580E-04 19202   0.626E-02    0.818E-02
RMM:   3    -0.672243530385E+03    0.39981E-05   -0.13481E-04 17914   0.297E-02    0.307E-02
RMM:   4    -0.672243539123E+03   -0.87378E-05   -0.26156E-05 12830   0.137E-02    0.228E-02
RMM:   5    -0.672243558992E+03   -0.19869E-04   -0.27438E-05 12815   0.112E-02    0.205E-02
RMM:   6    -0.672243561874E+03   -0.28816E-05   -0.38748E-06 11501   0.642E-03
  56 F= -.67499014E+03 E0= -.67498285E+03  d E =-.155235E-03  mag=    -0.5681
 trial-energy change:   -0.000155  1 .order   -0.000162   -0.000233   -0.000091
 step:   1.1135(harm=  1.1135)  dis= 0.00201  next Energy=  -674.990179 (dE=-0.191E-03)
 bond charge predicted
       N       E                     dE             d eps       ncg     rms          rms(c)
DAV:   1    -0.672243598430E+03   -0.39438E-04   -0.17570E-02 19504   0.294E-01    0.276E-02
RMM:   2    -0.672243610004E+03   -0.11573E-04   -0.31480E-04 19211   0.402E-02    0.388E-02
RMM:   3    -0.672243609639E+03    0.36449E-06   -0.53222E-05 14616   0.187E-02    0.225E-02
RMM:   4    -0.672243614575E+03   -0.49355E-05   -0.10300E-05 11659   0.973E-03    0.152E-02
RMM:   5    -0.672243626851E+03   -0.12276E-04   -0.12018E-05 11639   0.811E-03    0.162E-02
RMM:   6    -0.672243628383E+03   -0.15319E-05   -0.22702E-06 11080   0.514E-03
  57 F= -.67499017E+03 E0= -.67498288E+03  d E =-.182319E-03  mag=    -0.5685
 curvature:  -2.61 expect dE=-0.729E-03 dE for cont linesearch -0.845E-08
 trial: gam= 0.87600 g(F)=  0.279E-03 g(S)=  0.000E+00 ort = 0.228E-05 (trialstep = 0.766E+00)
 search vector abs. value=  0.152E-02
 bond charge predicted
       N       E                     dE             d eps       ncg     rms          rms(c)
DAV:   1    -0.672243751572E+03   -0.12472E-03   -0.52340E-02 19344   0.500E-01    0.470E-02
RMM:   2    -0.672243805197E+03   -0.53624E-04   -0.95613E-04 19200   0.690E-02    0.401E-02
RMM:   3    -0.672243816932E+03   -0.11735E-04   -0.15202E-04 18379   0.303E-02    0.472E-02
RMM:   4    -0.672243820121E+03   -0.31889E-05   -0.31716E-05 13103   0.158E-02    0.345E-02
RMM:   5    -0.672243831222E+03   -0.11101E-04   -0.16552E-05 12313   0.107E-02    0.311E-02
RMM:   6    -0.672243840617E+03   -0.93954E-05   -0.11548E-05 12170   0.917E-03
  58 F= -.67499030E+03 E0= -.67498301E+03  d E =-.133846E-03  mag=    -0.5696
 trial-energy change:   -0.000134  1 .order   -0.000144   -0.000215   -0.000072
 step:   1.1537(harm=  1.1537)  dis= 0.00202  next Energy=  -674.990332 (dE=-0.162E-03)
 bond charge predicted
       N       E                     dE             d eps       ncg     rms          rms(c)
DAV:   1    -0.672243867699E+03   -0.36477E-04   -0.13346E-02 19456   0.253E-01    0.238E-02
RMM:   2    -0.672243875938E+03   -0.82389E-05   -0.24913E-04 18909   0.359E-02    0.177E-02
RMM:   3    -0.672243880232E+03   -0.42940E-05   -0.39580E-05 13574   0.157E-02    0.136E-02
RMM:   4    -0.672243885248E+03   -0.50160E-05   -0.75394E-06 11522   0.787E-03    0.129E-02
RMM:   5    -0.672243892035E+03   -0.67879E-05   -0.38667E-06 11208   0.515E-03    0.250E-02
RMM:   6    -0.672243892872E+03   -0.83648E-06   -0.20398E-06 10528   0.410E-03
  59 F= -.67499032E+03 E0= -.67498302E+03  d E =-.146041E-03  mag=    -0.5702
 curvature:  -3.11 expect dE=-0.102E-02 dE for cont linesearch -0.866E-06
 trial: gam= 1.24604 g(F)=  0.329E-03 g(S)=  0.000E+00 ort =-0.205E-04 (trialstep = 0.486E+00)
 search vector abs. value=  0.263E-02
 bond charge predicted
       N       E                     dE             d eps       ncg     rms          rms(c)
DAV:   1    -0.672244025138E+03   -0.13310E-03   -0.34917E-02 19384   0.404E-01    0.374E-02
RMM:   2    -0.672244053203E+03   -0.28065E-04   -0.60550E-04 19208   0.544E-02    0.296E-02
RMM:   3    -0.672244062076E+03   -0.88731E-05   -0.96048E-05 16647   0.236E-02    0.445E-02
RMM:   4    -0.672244063600E+03   -0.15235E-05   -0.17818E-05 12406   0.124E-02    0.202E-02
RMM:   5    -0.672244076387E+03   -0.12787E-04   -0.11194E-05 11780   0.859E-03    0.186E-02
RMM:   6    -0.672244082923E+03   -0.65367E-05   -0.50593E-06 11359   0.676E-03
  60 F= -.67499043E+03 E0= -.67498314E+03  d E =-.117629E-03  mag=    -0.5709
 trial-energy change:   -0.000118  1 .order   -0.000124   -0.000147   -0.000101
 step:   1.5319(harm=  1.5319)  dis= 0.00361  next Energy=  -674.990548 (dE=-0.232E-03)
 bond charge predicted
       N       E                     dE             d eps       ncg     rms          rms(c)
DAV:   1    -0.672244036245E+03    0.40142E-04   -0.16171E-01 19424   0.868E-01    0.827E-02
RMM:   2    -0.672244216321E+03   -0.18008E-03   -0.28093E-03 19207   0.117E-01    0.784E-02
RMM:   3    -0.672244252952E+03   -0.36631E-04   -0.46132E-04 20961   0.512E-02    0.100E-01
RMM:   4    -0.672244255901E+03   -0.29494E-05   -0.86722E-05 15857   0.243E-02    0.398E-02
RMM:   5    -0.672244296122E+03   -0.40221E-04   -0.52270E-05 16380   0.165E-02    0.367E-02
RMM:   6    -0.672244310631E+03   -0.14509E-04   -0.20752E-05 12600   0.119E-02    0.236E-02
RMM:   7    -0.672244314126E+03   -0.34944E-05   -0.48637E-06 11710   0.742E-03
  61 F= -.67499051E+03 E0= -.67498321E+03  d E =-.192473E-03  mag=    -0.5724
 curvature:  -6.65 expect dE=-0.269E-02 dE for cont linesearch -0.615E-05
 trial: gam= 1.13194 g(F)=  0.405E-03 g(S)=  0.000E+00 ort =-0.493E-04 (trialstep = 0.499E+00)
 search vector abs. value=  0.367E-02
 bond charge predicted
       N       E                     dE             d eps       ncg     rms          rms(c)
DAV:   1    -0.672244452725E+03   -0.14209E-03   -0.50689E-02 19456   0.478E-01    0.470E-02
RMM:   2    -0.672244499267E+03   -0.46542E-04   -0.88813E-04 19235   0.651E-02    0.480E-02
RMM:   3    -0.672244508765E+03   -0.94985E-05   -0.15130E-04 18078   0.296E-02    0.575E-02
RMM:   4    -0.672244512359E+03   -0.35935E-05   -0.25679E-05 12835   0.142E-02    0.221E-02
RMM:   5    -0.672244532681E+03   -0.20323E-04   -0.22326E-05 12617   0.109E-02    0.113E-02
RMM:   6    -0.672244538249E+03   -0.55674E-05   -0.43424E-06 11493   0.656E-03
  62 F= -.67499065E+03 E0= -.67498335E+03  d E =-.141470E-03  mag=    -0.5720
 trial-energy change:   -0.000141  1 .order   -0.000142   -0.000174   -0.000111
 step:   1.3764(harm=  1.3764)  dis= 0.00375  next Energy=  -674.990749 (dE=-0.240E-03)
 bond charge predicted
       N       E                     dE             d eps       ncg     rms          rms(c)
DAV:   1    -0.672244485398E+03    0.47283E-04   -0.15591E-01 19456   0.839E-01    0.827E-02
RMM:   2    -0.672244658316E+03   -0.17292E-03   -0.27257E-03 19236   0.114E-01    0.892E-02
RMM:   3    -0.672244689927E+03   -0.31611E-04   -0.47860E-04 21008   0.522E-02    0.980E-02
RMM:   4    -0.672244695812E+03   -0.58852E-05   -0.81111E-05 15737   0.229E-02    0.393E-02
RMM:   5    -0.672244739488E+03   -0.43676E-04   -0.58146E-05 16325   0.167E-02    0.279E-02
RMM:   6    -0.672244751410E+03   -0.11922E-04   -0.14707E-05 12303   0.994E-03    0.728E-03
RMM:   7    -0.672244753976E+03   -0.25666E-05   -0.38398E-06 11652   0.598E-03
  63 F= -.67499072E+03 E0= -.67498341E+03  d E =-.210654E-03  mag=    -0.5709
 curvature:  -7.24 expect dE=-0.402E-02 dE for cont linesearch -0.897E-05
 trial: gam= 1.35039 g(F)=  0.556E-03 g(S)=  0.000E+00 ort =-0.674E-04 (trialstep = 0.350E+00)
 search vector abs. value=  0.706E-02
 bond charge predicted
       N       E                     dE             d eps       ncg     rms          rms(c)
DAV:   1    -0.672244887444E+03   -0.13603E-03   -0.49537E-02 19488   0.463E-01    0.492E-02
RMM:   2    -0.672244935896E+03   -0.48451E-04   -0.86992E-04 19215   0.648E-02    0.522E-02
RMM:   3    -0.672244945071E+03   -0.91751E-05   -0.15678E-04 17807   0.302E-02    0.658E-02
RMM:   4    -0.672244947647E+03   -0.25763E-05   -0.28708E-05 13069   0.141E-02    0.224E-02
RMM:   5    -0.672244966649E+03   -0.19002E-04   -0.18800E-05 12419   0.993E-03    0.754E-03
RMM:   6    -0.672244973946E+03   -0.72961E-05   -0.40799E-06 11486   0.593E-03
  64 F= -.67499086E+03 E0= -.67498355E+03  d E =-.144571E-03  mag=    -0.5697
 trial-energy change:   -0.000145  1 .order   -0.000141   -0.000163   -0.000119
 step:   1.3132(harm=  1.3132)  dis= 0.00543  next Energy=  -674.991024 (dE=-0.305E-03)
 bond charge predicted
       N       E                     dE             d eps       ncg     rms          rms(c)
DAV:   1    -0.672244623344E+03    0.34331E-03   -0.37243E-01 19456   0.127E+00    0.137E-01
RMM:   2    -0.672245098024E+03   -0.47468E-03   -0.65167E-03 19218   0.176E-01    0.165E-01
RMM:   3    -0.672245169163E+03   -0.71138E-04   -0.12099E-03 21285   0.825E-02    0.172E-01
RMM:   4    -0.672245171912E+03   -0.27494E-05   -0.21799E-04 20151   0.345E-02    0.607E-02
RMM:   5    -0.672245250202E+03   -0.78291E-04   -0.12745E-04 17905   0.236E-02    0.237E-02
RMM:   6    -0.672245275066E+03   -0.24864E-04   -0.30392E-05 13151   0.125E-02    0.122E-02
RMM:   7    -0.672245278484E+03   -0.34185E-05   -0.59373E-06 11733   0.683E-03
  65 F= -.67499096E+03 E0= -.67498364E+03  d E =-.239734E-03  mag=    -0.5664
 curvature:  -9.97 expect dE=-0.815E-02 dE for cont linesearch -0.405E-04
 ZBRENT: interpolating
 opt :   0.9935  next Energy=  -674.990986 (dE=-0.267E-03)
 bond charge predicted
       N       E                     dE             d eps       ncg     rms          rms(c)
DAV:   1    -0.672245160962E+03    0.11410E-03   -0.40776E-02 19456   0.420E-01    0.460E-02
RMM:   2    -0.672245198118E+03   -0.37156E-04   -0.70027E-04 19225   0.574E-02    0.615E-02
RMM:   3    -0.672245200029E+03   -0.19102E-05   -0.12397E-04 16951   0.268E-02    0.532E-02
RMM:   4    -0.672245203609E+03   -0.35808E-05   -0.21445E-05 12032   0.126E-02    0.197E-02
RMM:   5    -0.672245223449E+03   -0.19840E-04   -0.19130E-05 11893   0.968E-03    0.546E-03
RMM:   6    -0.672245227270E+03   -0.38213E-05   -0.29520E-06 10966   0.537E-03
  66 F= -.67499098E+03 E0= -.67498366E+03  d E =-.258445E-03  mag=    -0.5674
 curvature:  -6.66 expect dE=-0.313E-02 dE for cont linesearch -0.132E-06
 trial: gam= 0.68983 g(F)=  0.470E-03 g(S)=  0.000E+00 ort = 0.118E-04 (trialstep = 0.479E+00)
 search vector abs. value=  0.385E-02
 bond charge predicted
       N       E                     dE             d eps       ncg     rms          rms(c)
DAV:   1    -0.672245402845E+03   -0.17940E-03   -0.50377E-02 19440   0.472E-01    0.483E-02
RMM:   2    -0.672245451493E+03   -0.48647E-04   -0.86381E-04 19208   0.640E-02    0.611E-02
RMM:   3    -0.672245455401E+03   -0.39084E-05   -0.15386E-04 18099   0.296E-02    0.496E-02
RMM:   4    -0.672245458954E+03   -0.35530E-05   -0.24054E-05 12724   0.137E-02    0.227E-02
RMM:   5    -0.672245476842E+03   -0.17888E-04   -0.27443E-05 12948   0.114E-02    0.144E-02
RMM:   6    -0.672245480674E+03   -0.38315E-05   -0.45467E-06 11272   0.672E-03
  67 F= -.67499116E+03 E0= -.67498384E+03  d E =-.178565E-03  mag=    -0.5672
 trial-energy change:   -0.000179  1 .order   -0.000183   -0.000229   -0.000136
 step:   1.1821(harm=  1.1821)  dis= 0.00381  next Energy=  -674.991260 (dE=-0.283E-03)
 bond charge predicted
       N       E                     dE             d eps       ncg     rms          rms(c)
DAV:   1    -0.672245486505E+03   -0.96631E-05   -0.10863E-01 19456   0.693E-01    0.724E-02
RMM:   2    -0.672245603141E+03   -0.11664E-03   -0.18828E-03 19204   0.944E-02    0.900E-02
RMM:   3    -0.672245617295E+03   -0.14154E-04   -0.35149E-04 20575   0.439E-02    0.750E-02
RMM:   4    -0.672245624658E+03   -0.73629E-05   -0.51531E-05 14580   0.188E-02    0.341E-02
RMM:   5    -0.672245662174E+03   -0.37516E-04   -0.50877E-05 16116   0.152E-02    0.287E-02
RMM:   6    -0.672245668647E+03   -0.64725E-05   -0.99235E-06 12017   0.859E-03
  68 F= -.67499123E+03 E0= -.67498392E+03  d E =-.256679E-03  mag=    -0.5669
 curvature:  -4.75 expect dE=-0.129E-02 dE for cont linesearch -0.704E-06
 trial: gam= 0.80302 g(F)=  0.272E-03 g(S)=  0.000E+00 ort =-0.239E-04 (trialstep = 0.620E+00)
 search vector abs. value=  0.271E-02
 bond charge predicted
       N       E                     dE             d eps       ncg     rms          rms(c)
DAV:   1    -0.672245770513E+03   -0.10834E-03   -0.59065E-02 19456   0.504E-01    0.506E-02
RMM:   2    -0.672245820914E+03   -0.50401E-04   -0.10025E-03 19213   0.667E-02    0.335E-02
RMM:   3    -0.672245840129E+03   -0.19214E-04   -0.15181E-04 17949   0.289E-02    0.236E-02
RMM:   4    -0.672245861841E+03   -0.21712E-04   -0.29631E-05 12957   0.150E-02    0.349E-02
RMM:   5    -0.672245862678E+03   -0.83681E-06   -0.79672E-06 11801   0.835E-03    0.107E-02
RMM:   6    -0.672245872945E+03   -0.10267E-04   -0.37185E-06 11291   0.522E-03    0.865E-03
RMM:   7    -0.672245874283E+03   -0.13385E-05   -0.10487E-06  9895   0.326E-03
  69 F= -.67499135E+03 E0= -.67498404E+03  d E =-.119962E-03  mag=    -0.5679
 trial-energy change:   -0.000120  1 .order   -0.000121   -0.000156   -0.000085
 step:   1.3516(harm=  1.3516)  dis= 0.00327  next Energy=  -674.991405 (dE=-0.171E-03)
 bond charge predicted
       N       E                     dE             d eps       ncg     rms          rms(c)
DAV:   1    -0.672245898371E+03   -0.25426E-04   -0.82341E-02 19488   0.595E-01    0.587E-02
RMM:   2    -0.672245973188E+03   -0.74817E-04   -0.13835E-03 19229   0.783E-02    0.387E-02
RMM:   3    -0.672245995290E+03   -0.22103E-04   -0.21010E-04 18980   0.337E-02    0.289E-02
RMM:   4    -0.672246013277E+03   -0.17987E-04   -0.39693E-05 13624   0.158E-02    0.331E-02
RMM:   5    -0.672246024751E+03   -0.11474E-04   -0.12488E-05 12075   0.101E-02    0.366E-02
RMM:   6    -0.672246032505E+03   -0.77536E-05   -0.66156E-06 11728   0.766E-03
  70 F= -.67499141E+03 E0= -.67498410E+03  d E =-.176800E-03  mag=    -0.5693
 curvature:  -7.26 expect dE=-0.181E-02 dE for cont linesearch -0.489E-05
 trial: gam= 0.55271 g(F)=  0.249E-03 g(S)=  0.000E+00 ort = 0.427E-04 (trialstep = 0.766E+00)
 search vector abs. value=  0.113E-02
 bond charge predicted
       N       E                     dE             d eps       ncg     rms          rms(c)
DAV:   1    -0.672246160655E+03   -0.13590E-03   -0.38317E-02 19472   0.418E-01    0.441E-02
RMM:   2    -0.672246198919E+03   -0.38265E-04   -0.71540E-04 19202   0.588E-02    0.623E-02
RMM:   3    -0.672246199442E+03   -0.52265E-06   -0.10976E-04 16887   0.255E-02    0.379E-02
RMM:   4    -0.672246204057E+03   -0.46146E-05   -0.22911E-05 12607   0.128E-02    0.229E-02
RMM:   5    -0.672246220954E+03   -0.16897E-04   -0.24553E-05 12736   0.111E-02    0.237E-02
RMM:   6    -0.672246224308E+03   -0.33540E-05   -0.58134E-06 11488   0.781E-03
  71 F= -.67499153E+03 E0= -.67498423E+03  d E =-.123400E-03  mag=    -0.5699
 trial-energy change:   -0.000123  1 .order   -0.000123   -0.000209   -0.000037
 step:   0.9292(harm=  0.9292)  dis= 0.00143  next Energy=  -674.991538 (dE=-0.127E-03)
 bond charge predicted
       N       E                     dE             d eps       ncg     rms          rms(c)
DAV:   1    -0.672246241094E+03   -0.20140E-04   -0.17428E-03 19960   0.896E-02    0.963E-03
RMM:   2    -0.672246240097E+03    0.99710E-06   -0.35293E-05 12266   0.134E-02    0.741E-03
RMM:   3    -0.672246241276E+03   -0.11785E-05   -0.52717E-06 11034   0.676E-03    0.150E-02
RMM:   4    -0.672246241350E+03   -0.74702E-07   -0.12538E-06  9090   0.346E-03    0.558E-03
RMM:   5    -0.672246244662E+03   -0.33114E-05   -0.86073E-07  9856   0.245E-03    0.444E-03
RMM:   6    -0.672246245790E+03   -0.11279E-05   -0.23883E-07  6916   0.183E-03
  72 F= -.67499154E+03 E0= -.67498424E+03  d E =-.129457E-03  mag=    -0.5700
 curvature:  -1.92 expect dE=-0.291E-03 dE for cont linesearch -0.102E-07
 trial: gam= 0.73868 g(F)=  0.152E-03 g(S)=  0.000E+00 ort =-0.244E-05 (trialstep = 0.799E+00)
 search vector abs. value=  0.762E-03
 bond charge predicted
       N       E                     dE             d eps       ncg     rms          rms(c)
DAV:   1    -0.672246336824E+03   -0.92162E-04   -0.27489E-02 19408   0.354E-01    0.387E-02
RMM:   2    -0.672246360520E+03   -0.23697E-04   -0.51711E-04 19200   0.478E-02    0.499E-02
RMM:   3    -0.672246362215E+03   -0.16946E-05   -0.76211E-05 15463   0.217E-02    0.488E-02
RMM:   4    -0.672246364221E+03   -0.20062E-05   -0.15046E-05 12189   0.111E-02    0.204E-02
RMM:   5    -0.672246378878E+03   -0.14657E-04   -0.17706E-05 12174   0.911E-03    0.576E-03
RMM:   6    -0.672246381136E+03   -0.22586E-05   -0.24482E-06 11149   0.519E-03
  73 F= -.67499161E+03 E0= -.67498431E+03  d E =-.720431E-04  mag=    -0.5712
 trial-energy change:   -0.000072  1 .order   -0.000077   -0.000120   -0.000035
 step:   1.1261(harm=  1.1261)  dis= 0.00153  next Energy=  -674.991625 (dE=-0.845E-04)
 reached required accuracy - stopping structural energy minimisation
