KAIST-INCAR                             
           1
    14.778400    0.000000    0.000000
    -7.389200   12.798470    0.000000
     0.000000    0.000000   15.000000
   C    N    Ni   O    H 
    67     4     1     2     1
Direct configuration=     1
   0.00006134  0.99996320  0.11057838
   0.05748435  0.11181923  0.10985378
   0.16503921  0.99791206  0.11027786
   0.22185133  0.10876350  0.10896857
   0.33225823  0.99828039  0.11076811
   0.38883692  0.10852898  0.10956833
   0.50021421  0.00016693  0.11101483
   0.55652891  0.11042061  0.11071919
   0.66796069  0.00151958  0.11056115
   0.72429358  0.11216490  0.11078745
   0.83503480  0.00167742  0.11052577
   0.89203130  0.11313456  0.11036214
   0.00376646  0.16902844  0.10978377
   0.06199747  0.28100964  0.10917925
   0.16904836  0.16682200  0.10842083
   0.22948355  0.27894415  0.10559566
   0.33299410  0.16301037  0.10761432
   0.38787890  0.27277478  0.10304136
   0.49993342  0.16406672  0.10960158
   0.55576686  0.27439910  0.10771698
   0.66794146  0.16647378  0.11064388
   0.72373782  0.27726028  0.11026393
   0.83593207  0.16798003  0.11056995
   0.89204114  0.27892198  0.11051803
   0.00375942  0.33475819  0.11004112
   0.05756298  0.44572078  0.11019321
   0.17545066  0.33773340  0.10690478
   0.22966478  0.45059907  0.10638645
   0.50085391  0.32929421  0.10297420
   0.66692272  0.33132139  0.10903327
   0.71969628  0.44214523  0.10862071
   0.83503016  0.33340250  0.11058727
   0.88868284  0.44428557  0.11065574
   0.00013772  0.50017248  0.11063443
   0.05375436  0.61104238  0.11046600
   0.16914909  0.50228517  0.10903659
   0.22184081  0.61310966  0.10936505
   0.38799070  0.61518994  0.10480596
   0.65923683  0.49382010  0.10573102
   0.71332418  0.60666712  0.10766833
   0.83126616  0.49872076  0.11008942
   0.88504543  0.60967807  0.10996528
   0.99674982  0.66551503  0.11039131
   0.05284903  0.77645620  0.11059472
   0.16503297  0.66717825  0.11023350
   0.22083745  0.77797678  0.11060960
   0.33302551  0.67007196  0.10827890
   0.38886007  0.78045182  0.10965174
   0.50080073  0.67161088  0.10557642
   0.55576528  0.78141895  0.10842457
   0.65914732  0.66530449  0.10784507
   0.71964493  0.77751415  0.10951488
   0.82679596  0.66341133  0.10953132
   0.88500379  0.77538181  0.11020183
   0.99674587  0.83128524  0.11054759
   0.05374010  0.94275755  0.11057039
   0.16449816  0.83227397  0.11085434
   0.22082903  0.94294023  0.11072070
   0.33224989  0.83409602  0.11065009
   0.38857280  0.94435329  0.11105621
   0.49993599  0.83598700  0.10955592
   0.55653985  0.94623569  0.11056333
   0.66692999  0.83566599  0.10966537
   0.72374898  0.94652092  0.11033894
   0.83124397  0.83255556  0.11030157
   0.88868189  0.94443716  0.11066169
   0.43857979  0.45669526  0.25381300
   0.33671212  0.32781413  0.10142420
   0.55206401  0.43554930  0.10098707
   0.33697234  0.50887392  0.10321961
   0.55176999  0.61625257  0.10598518
   0.44437689  0.47167500  0.12545625
   0.44478318  0.38851575  0.29393946
   0.42464476  0.53160519  0.29422306
   0.42088196  0.51844994  0.35875836
Direct configuration=     2
   0.00018083  0.00002022  0.11056256
   0.05757694  0.11192257  0.10981954
   0.16511225  0.99803117  0.11030713
   0.22191744  0.10888507  0.10894090
   0.33219303  0.99833342  0.11078448
   0.38889727  0.10864772  0.10955034
   0.50014234  0.00013030  0.11100860
   0.55658235  0.11051251  0.11074432
   0.66795097  0.00151729  0.11057098
   0.72428074  0.11216045  0.11077209
   0.83503366  0.00159661  0.11053504
   0.89199665  0.11315487  0.11037554
   0.00390095  0.16914049  0.10979518
   0.06212680  0.28107863  0.10915151
   0.16911263  0.16683823  0.10838050
   0.22944545  0.27907094  0.10565176
   0.33295699  0.16301718  0.10750114
   0.38818239  0.27282274  0.10306717
   0.49988030  0.16414679  0.10958745
   0.55579206  0.27446257  0.10757830
   0.66794327  0.16649362  0.11065108
   0.72365556  0.27729406  0.11029811
   0.83591139  0.16796893  0.11056700
   0.89199774  0.27888393  0.11052590
   0.00391969  0.33479740  0.11004801
   0.05763326  0.44570174  0.11015004
   0.17537503  0.33769278  0.10685596
   0.22962129  0.45045149  0.10645176
   0.50061573  0.32906308  0.10299195
   0.66683694  0.33134227  0.10900409
   0.71965076  0.44212709  0.10856750
   0.83502993  0.33346694  0.11059608
   0.88861098  0.44424502  0.11064833
   0.00020741  0.50019534  0.11062701
   0.05375903  0.61097781  0.11047866
   0.16920644  0.50230060  0.10898574
   0.22193727  0.61309431  0.10934203
   0.38821232  0.61540388  0.10482816
   0.65926325  0.49395908  0.10580418
   0.71340183  0.60669048  0.10762262
   0.83118676  0.49873836  0.11004540
   0.88487577  0.60963165  0.10997531
   0.99679679  0.66556298  0.11040407
   0.05288000  0.77646364  0.11059526
   0.16512524  0.66714731  0.11027090
   0.22083958  0.77796418  0.11061824
   0.33300092  0.67000675  0.10815718
   0.38890503  0.78036806  0.10964366
   0.50051732  0.67155652  0.10559387
   0.55579409  0.78142502  0.10833189
   0.65919664  0.66518523  0.10790177
   0.71958326  0.77750243  0.10949081
   0.82665889  0.66334069  0.10950740
   0.88487124  0.77527115  0.11021506
   0.99677937  0.83128245  0.11056172
   0.05374015  0.94282350  0.11057916
   0.16450319  0.83229237  0.11083668
   0.22084394  0.94293858  0.11072637
   0.33220526  0.83399306  0.11067366
   0.38864819  0.94438093  0.11105110
   0.49988528  0.83585578  0.10954950
   0.55659047  0.94617804  0.11057977
   0.66686239  0.83553199  0.10964896
   0.72366488  0.94640884  0.11037014
   0.83115343  0.83245814  0.11027283
   0.88855861  0.94436909  0.11064388
   0.43861569  0.45673220  0.25332925
   0.33713084  0.32839204  0.10171356
   0.55165958  0.43569659  0.10136743
   0.33737562  0.50873686  0.10358424
   0.55135876  0.61568642  0.10622786
   0.44431379  0.47161103  0.12485642
   0.44476742  0.38860590  0.29402856
   0.42466355  0.53159765  0.29423263
   0.42089685  0.51844485  0.35892681
Direct configuration=     3
   0.00024639  0.00005152  0.11055388
   0.05762775  0.11197927  0.10980075
   0.16515234  0.99809652  0.11032319
   0.22195372  0.10895178  0.10892571
   0.33215725  0.99836252  0.11079346
   0.38893038  0.10871289  0.10954047
   0.50010290  0.00011020  0.11100519
   0.55661168  0.11056294  0.11075811
   0.66794563  0.00151603  0.11057637
   0.72427370  0.11215800  0.11076366
   0.83503304  0.00155227  0.11054012
   0.89197764  0.11316601  0.11038290
   0.00397474  0.16920198  0.10980144
   0.06219777  0.28111649  0.10913628
   0.16914790  0.16684714  0.10835837
   0.22942454  0.27914052  0.10568254
   0.33293662  0.16302091  0.10743904
   0.38834892  0.27284906  0.10308134
   0.49985115  0.16419073  0.10957970
   0.55580589  0.27449740  0.10750219
   0.66794426  0.16650451  0.11065503
   0.72361042  0.27731260  0.11031687
   0.83590004  0.16796284  0.11056538
   0.89197393  0.27886305  0.11053022
   0.00400763  0.33481891  0.11005178
   0.05767183  0.44569129  0.11012635
   0.17533352  0.33767049  0.10682918
   0.22959742  0.45037051  0.10648760
   0.50048503  0.32893625  0.10300168
   0.66678987  0.33135373  0.10898808
   0.71962579  0.44211714  0.10853830
   0.83502981  0.33350230  0.11060092
   0.88857155  0.44422277  0.11064426
   0.00024565  0.50020789  0.11062294
   0.05376159  0.61094237  0.11048561
   0.16923791  0.50230907  0.10895783
   0.22199021  0.61308589  0.10932940
   0.38833393  0.61552128  0.10484035
   0.65927775  0.49403534  0.10584432
   0.71344444  0.60670330  0.10759754
   0.83114318  0.49874802  0.11002125
   0.88478267  0.60960617  0.10998082
   0.99682257  0.66558929  0.11041108
   0.05289700  0.77646773  0.11059555
   0.16517587  0.66713034  0.11029142
   0.22084075  0.77795727  0.11062298
   0.33298743  0.66997096  0.10809039
   0.38892970  0.78032211  0.10963923
   0.50036180  0.67152668  0.10560344
   0.55580990  0.78142836  0.10828103
   0.65922370  0.66511979  0.10793288
   0.71954943  0.77749600  0.10947761
   0.82658367  0.66330192  0.10949428
   0.88479851  0.77521043  0.11022231
   0.99679776  0.83128092  0.11056947
   0.05374017  0.94285969  0.11058398
   0.16450595  0.83230247  0.11082699
   0.22085213  0.94293768  0.11072948
   0.33218076  0.83393656  0.11068659
   0.38868957  0.94439609  0.11104830
   0.49985745  0.83578378  0.10954598
   0.55661824  0.94614641  0.11058879
   0.66682530  0.83545847  0.10963995
   0.72361872  0.94634735  0.11038727
   0.83110376  0.83240468  0.11025705
   0.88849096  0.94433173  0.11063411
   0.43863539  0.45675247  0.25306381
   0.33736060  0.32870915  0.10187233
   0.55143766  0.43577742  0.10157614
   0.33759691  0.50866166  0.10378432
   0.55113310  0.61537576  0.10636103
   0.44427916  0.47157593  0.12452728
   0.44475878  0.38865537  0.29407745
   0.42467386  0.53159351  0.29423788
   0.42090501  0.51844205  0.35901925
Direct configuration=     4
   0.00019166  0.00009072  0.11053255
   0.05772083  0.11204900  0.10975823
   0.16520030  0.99818084  0.11035316
   0.22201015  0.10901297  0.10888522
   0.33223337  0.99841483  0.11081088
   0.38885726  0.10874522  0.10950908
   0.50020190  0.00015017  0.11100355
   0.55654755  0.11057256  0.11078462
   0.66794532  0.00146881  0.11059028
   0.72425156  0.11215603  0.11074821
   0.83495677  0.00151912  0.11055329
   0.89204450  0.11316889  0.11040054
   0.00399996  0.16925505  0.10980867
   0.06223692  0.28113381  0.10910058
   0.16929109  0.16704547  0.10830663
   0.22967002  0.27937177  0.10575891
   0.33300134  0.16312987  0.10730734
   0.38833813  0.27293937  0.10313204
   0.49992635  0.16429280  0.10954870
   0.55576632  0.27453221  0.10734449
   0.66794918  0.16655115  0.11066770
   0.72356834  0.27736218  0.11035229
   0.83586550  0.16795329  0.11056359
   0.89204859  0.27892437  0.11054199
   0.00402595  0.33479530  0.11005276
   0.05776239  0.44570949  0.11007320
   0.17534330  0.33767973  0.10679365
   0.22983056  0.45037355  0.10658123
   0.50051469  0.32906394  0.10305056
   0.66673890  0.33137724  0.10894277
   0.71948324  0.44214161  0.10847273
   0.83496462  0.33347713  0.11061485
   0.88860325  0.44429804  0.11063144
   0.00021149  0.50013055  0.11061078
   0.05382715  0.61096220  0.11050411
   0.16937370  0.50228145  0.10889623
   0.22204794  0.61305941  0.10929295
   0.38831685  0.61539479  0.10488885
   0.65903848  0.49402012  0.10594525
   0.71343026  0.60669162  0.10756596
   0.83105932  0.49872367  0.10996746
   0.88476253  0.60963357  0.10998605
   0.99674775  0.66552075  0.11042911
   0.05292472  0.77648998  0.11059757
   0.16522322  0.66708634  0.11033118
   0.22083676  0.77791699  0.11063690
   0.33302876  0.66993268  0.10795393
   0.38886438  0.78020834  0.10961760
   0.50037200  0.67143390  0.10564561
   0.55575381  0.78130243  0.10817611
   0.65898292  0.66488429  0.10801020
   0.71941138  0.77729768  0.10944809
   0.82654334  0.66327872  0.10946379
   0.88477024  0.77516247  0.11023196
   0.99673215  0.83126428  0.11058826
   0.05381306  0.94289934  0.11059700
   0.16453509  0.83230418  0.11080945
   0.22083940  0.94299613  0.11073854
   0.33224397  0.83392606  0.11071179
   0.38858649  0.94435069  0.11104759
   0.49991703  0.83575350  0.10953007
   0.55654846  0.94607998  0.11060734
   0.66676102  0.83540297  0.10961456
   0.72357449  0.94625366  0.11042061
   0.83101027  0.83232924  0.11022240
   0.88854711  0.94428990  0.11061147
   0.43866768  0.45661127  0.25294590
   0.33764648  0.32900960  0.10218419
   0.55116699  0.43579794  0.10199224
   0.33784008  0.50862245  0.10418289
   0.55085798  0.61506931  0.10661882
   0.44421984  0.47153491  0.12383491
   0.44472752  0.38901046  0.29392223
   0.42470367  0.53155389  0.29422624
   0.42094438  0.51841175  0.35905821
Direct configuration=     5
   0.00015030  0.00012033  0.11051643
   0.05779115  0.11210169  0.10972611
   0.16523654  0.99824454  0.11037581
   0.22205278  0.10905920  0.10885461
   0.33229088  0.99845435  0.11082404
   0.38880202  0.10876966  0.10948536
   0.50027670  0.00018037  0.11100231
   0.55649909  0.11057982  0.11080464
   0.66794508  0.00143313  0.11060078
   0.72423484  0.11215454  0.11073655
   0.83489914  0.00149408  0.11056324
   0.89209501  0.11317106  0.11041387
   0.00401902  0.16929515  0.10981414
   0.06226650  0.28114690  0.10907360
   0.16939927  0.16719533  0.10826752
   0.22985551  0.27954649  0.10581662
   0.33305024  0.16321219  0.10720784
   0.38832997  0.27300760  0.10317035
   0.49998318  0.16436992  0.10952527
   0.55573642  0.27455851  0.10722533
   0.66795290  0.16658639  0.11067727
   0.72353655  0.27739964  0.11037905
   0.83583940  0.16794607  0.11056223
   0.89210501  0.27897071  0.11055089
   0.00403979  0.33477745  0.11005350
   0.05783082  0.44572324  0.11003303
   0.17535069  0.33768670  0.10676681
   0.23000673  0.45037584  0.10665198
   0.50053709  0.32916042  0.10308749
   0.66670039  0.33139501  0.10890854
   0.71937553  0.44216010  0.10842318
   0.83491537  0.33345812  0.11062538
   0.88862720  0.44435490  0.11062175
   0.00018567  0.50007211  0.11060160
   0.05387668  0.61097718  0.11051808
   0.16947630  0.50226057  0.10884969
   0.22209157  0.61303940  0.10926541
   0.38830395  0.61529923  0.10492551
   0.65885768  0.49400862  0.10602150
   0.71341954  0.60668279  0.10754210
   0.83099595  0.49870526  0.10992681
   0.88474732  0.60965427  0.10999000
   0.99669122  0.66546896  0.11044273
   0.05294566  0.77650680  0.11059910
   0.16525900  0.66705310  0.11036121
   0.22083374  0.77788656  0.11064741
   0.33305999  0.66990375  0.10785083
   0.38881503  0.78012237  0.10960126
   0.50037971  0.67136379  0.10567748
   0.55571143  0.78120728  0.10809684
   0.65880098  0.66470634  0.10806863
   0.71930707  0.77714784  0.10942579
   0.82651286  0.66326119  0.10944074
   0.88474888  0.77512623  0.11023925
   0.99668257  0.83125170  0.11060245
   0.05386814  0.94292930  0.11060684
   0.16455711  0.83230548  0.11079619
   0.22082978  0.94304030  0.11074538
   0.33229173  0.83391812  0.11073082
   0.38850860  0.94431638  0.11104706
   0.49996205  0.83573061  0.10951805
   0.55649574  0.94602978  0.11062135
   0.66671246  0.83536105  0.10959538
   0.72354107  0.94618286  0.11044581
   0.83093964  0.83227223  0.11019621
   0.88858953  0.94425829  0.11059436
   0.43869208  0.45650457  0.25285681
   0.33786249  0.32923661  0.10241983
   0.55096247  0.43581345  0.10230664
   0.33802381  0.50859283  0.10448403
   0.55065010  0.61483776  0.10681360
   0.44417501  0.47150391  0.12331176
   0.44470389  0.38927876  0.29380495
   0.42472619  0.53152396  0.29421745
   0.42097413  0.51838885  0.35908765
Direct configuration=     6
   0.00016788  0.00015101  0.11048583
   0.05786434  0.11221283  0.10967221
   0.16525741  0.99829230  0.11040182
   0.22212599  0.10917533  0.10878989
   0.33229686  0.99847437  0.11083940
   0.38884627  0.10884120  0.10942880
   0.50025325  0.00017665  0.11101108
   0.55649529  0.11059102  0.11082867
   0.66790154  0.00135816  0.11062081
   0.72420129  0.11213717  0.11072526
   0.83490184  0.00147288  0.11058215
   0.89209698  0.11313978  0.11043745
   0.00403902  0.16928022  0.10981038
   0.06223640  0.28113351  0.10902734
   0.16963203  0.16746993  0.10820681
   0.23019169  0.27983530  0.10592491
   0.33307693  0.16333730  0.10706767
   0.38833206  0.27319421  0.10325683
   0.49994001  0.16439541  0.10946256
   0.55572893  0.27465338  0.10705732
   0.66790217  0.16661710  0.11069850
   0.72352503  0.27743047  0.11041057
   0.83588543  0.16797348  0.11056374
   0.89212126  0.27900756  0.11056893
   0.00404517  0.33479800  0.11004110
   0.05791694  0.44570342  0.10996682
   0.17554081  0.33778168  0.10676111
   0.23031423  0.45041356  0.10678775
   0.50053841  0.32934052  0.10318741
   0.66665072  0.33144790  0.10883454
   0.71914889  0.44218932  0.10834861
   0.83491164  0.33347908  0.11064688
   0.88859392  0.44436385  0.11059901
   0.00022135  0.50006559  0.11058052
   0.05388205  0.61095285  0.11054541
   0.16969591  0.50222650  0.10878038
   0.22213674  0.61298133  0.10920533
   0.38831017  0.61511545  0.10501941
   0.65854384  0.49396678  0.10616649
   0.71322592  0.60658461  0.10754182
   0.83091401  0.49872382  0.10985999
   0.88474983  0.60963142  0.10998376
   0.99667348  0.66542969  0.11046873
   0.05289780  0.77647488  0.11060489
   0.16527253  0.66702114  0.11039903
   0.22088812  0.77785685  0.11066959
   0.33308136  0.66979113  0.10770742
   0.38885818  0.78009468  0.10955455
   0.50038084  0.67115900  0.10575219
   0.55567675  0.78106374  0.10799006
   0.65845455  0.66440884  0.10817486
   0.71907139  0.77687020  0.10939399
   0.82654135  0.66327565  0.10940163
   0.88472653  0.77513094  0.11023962
   0.99667393  0.83127852  0.11062763
   0.05386623  0.94294976  0.11062594
   0.16459001  0.83232614  0.11078337
   0.22087622  0.94311301  0.11076017
   0.33229402  0.83390078  0.11075474
   0.38853244  0.94431311  0.11105609
   0.49991904  0.83564314  0.10948250
   0.55648841  0.94600941  0.11064051
   0.66664455  0.83524506  0.10955343
   0.72351528  0.94614039  0.11047800
   0.83086485  0.83215924  0.11015423
   0.88857199  0.94423311  0.11056458
   0.43865620  0.45690116  0.25266314
   0.33798004  0.32933300  0.10273338
   0.55084338  0.43581171  0.10273718
   0.33810948  0.50856872  0.10489756
   0.55052234  0.61471023  0.10706969
   0.44413173  0.47150131  0.12260088
   0.44472609  0.38917412  0.29380284
   0.42476772  0.53148083  0.29416420
   0.42104264  0.51833422  0.35899824
Direct configuration=     7
   0.00017125  0.00015689  0.11047996
   0.05787837  0.11223413  0.10966188
   0.16526141  0.99830145  0.11040680
   0.22214002  0.10919759  0.10877749
   0.33229800  0.99847821  0.11084234
   0.38885475  0.10885491  0.10941796
   0.50024875  0.00017593  0.11101276
   0.55649456  0.11059317  0.11083327
   0.66789320  0.00134379  0.11062465
   0.72419486  0.11213385  0.11072310
   0.83490236  0.00146882  0.11058577
   0.89209736  0.11313379  0.11044197
   0.00404285  0.16927736  0.10980967
   0.06223063  0.28113094  0.10901848
   0.16967664  0.16752255  0.10819518
   0.23025612  0.27989064  0.10594567
   0.33308204  0.16336127  0.10704082
   0.38833246  0.27322997  0.10327340
   0.49993174  0.16440030  0.10945055
   0.55572750  0.27467156  0.10702512
   0.66789245  0.16662298  0.11070257
   0.72352283  0.27743638  0.11041661
   0.83589425  0.16797873  0.11056403
   0.89212437  0.27901462  0.11057238
   0.00404620  0.33480194  0.11003873
   0.05793344  0.44569962  0.10995413
   0.17557724  0.33779989  0.10676001
   0.23037316  0.45042079  0.10681376
   0.50053866  0.32937503  0.10320656
   0.66664120  0.33145804  0.10882036
   0.71910546  0.44219492  0.10833433
   0.83491092  0.33348310  0.11065100
   0.88858754  0.44436557  0.11059465
   0.00022819  0.50006434  0.11057648
   0.05388308  0.61094818  0.11055064
   0.16973800  0.50221997  0.10876710
   0.22214539  0.61297020  0.10919382
   0.38831136  0.61508023  0.10503741
   0.65848369  0.49395876  0.10619427
   0.71318882  0.60656580  0.10754177
   0.83089831  0.49872738  0.10984719
   0.88475031  0.60962704  0.10998256
   0.99667008  0.66542216  0.11047371
   0.05288863  0.77646876  0.11060600
   0.16527512  0.66701501  0.11040627
   0.22089854  0.77785116  0.11067384
   0.33308545  0.66976955  0.10767994
   0.38886645  0.78008937  0.10954560
   0.50038105  0.67111975  0.10576650
   0.55567010  0.78103623  0.10796960
   0.65838816  0.66435183  0.10819522
   0.71902623  0.77681699  0.10938790
   0.82654681  0.66327842  0.10939413
   0.88472225  0.77513184  0.11023969
   0.99667227  0.83128366  0.11063245
   0.05386587  0.94295368  0.11062959
   0.16459632  0.83233011  0.11078091
   0.22088511  0.94312695  0.11076301
   0.33229446  0.83389746  0.11075932
   0.38853701  0.94431249  0.11105782
   0.49991080  0.83562638  0.10947569
   0.55648701  0.94600551  0.11064418
   0.66663154  0.83522283  0.10954539
   0.72351033  0.94613225  0.11048416
   0.83085051  0.83213759  0.11014618
   0.88856863  0.94422829  0.11055887
   0.43864933  0.45697716  0.25262603
   0.33800257  0.32935147  0.10279347
   0.55082056  0.43581138  0.10281969
   0.33812589  0.50856410  0.10497681
   0.55049786  0.61468579  0.10711876
   0.44412344  0.47150081  0.12246465
   0.44473035  0.38915406  0.29380244
   0.42477568  0.53147257  0.29415399
   0.42105577  0.51832375  0.35898111
Direct configuration=     8
   0.00025029  0.00018633  0.11045765
   0.05795540  0.11231162  0.10962905
   0.16525273  0.99831704  0.11040563
   0.22216704  0.10928110  0.10872503
   0.33227944  0.99849213  0.11084191
   0.38891404  0.10890441  0.10936428
   0.50016915  0.00013981  0.11102944
   0.55650582  0.11060702  0.11083376
   0.66786609  0.00133805  0.11063864
   0.72419393  0.11213006  0.11072882
   0.83494144  0.00145796  0.11059812
   0.89204725  0.11310660  0.11045532
   0.00404002  0.16924581  0.10979198
   0.06226648  0.28115005  0.10899069
   0.16976110  0.16761646  0.10817008
   0.23030348  0.27995570  0.10601900
   0.33309464  0.16341910  0.10699236
   0.38842620  0.27329576  0.10335039
   0.49987630  0.16439330  0.10938694
   0.55571073  0.27472614  0.10696674
   0.66786539  0.16660666  0.11071961
   0.72353361  0.27744918  0.11041674
   0.83592773  0.16799010  0.11057083
   0.89206864  0.27899598  0.11058518
   0.00405413  0.33483191  0.11001538
   0.05800818  0.44570050  0.10991582
   0.17572745  0.33787225  0.10680631
   0.23040134  0.45039640  0.10690961
   0.50044440  0.32933531  0.10330640
   0.66662487  0.33149670  0.10875940
   0.71902901  0.44222596  0.10830559
   0.83494635  0.33352096  0.11066602
   0.88852830  0.44432806  0.11057309
   0.00029189  0.50010336  0.11055704
   0.05384854  0.61091317  0.11056931
   0.16981439  0.50218833  0.10874121
   0.22215851  0.61292848  0.10914343
   0.38840114  0.61510556  0.10512645
   0.65844126  0.49397961  0.10629473
   0.71303684  0.60649263  0.10759137
   0.83081800  0.49872813  0.10980867
   0.88474544  0.60959109  0.10996387
   0.99672862  0.66544363  0.11049114
   0.05285843  0.77644518  0.11061485
   0.16526446  0.66699786  0.11041145
   0.22092471  0.77786143  0.11069111
   0.33310794  0.66970740  0.10763480
   0.38891380  0.78009210  0.10949589
   0.50028799  0.67103391  0.10583076
   0.55564942  0.78097115  0.10793985
   0.65832847  0.66427620  0.10826384
   0.71893348  0.77671704  0.10937852
   0.82650974  0.66325772  0.10937148
   0.88472297  0.77515382  0.11022589
   0.99671913  0.83131757  0.11064737
   0.05382593  0.94295879  0.11064198
   0.16459175  0.83233383  0.11078691
   0.22092006  0.94312514  0.11077448
   0.33228343  0.83387874  0.11076212
   0.38861827  0.94434599  0.11107366
   0.49986278  0.83556437  0.10943714
   0.55650181  0.94599429  0.11064908
   0.66661028  0.83513445  0.10951057
   0.72351432  0.94612281  0.11048934
   0.83077271  0.83206168  0.11012325
   0.88848732  0.94420208  0.11053984
   0.43863848  0.45698980  0.25277538
   0.33796142  0.32933299  0.10288259
   0.55084342  0.43583626  0.10296168
   0.33809499  0.50853490  0.10511082
   0.55051487  0.61467195  0.10718474
   0.44412978  0.47154154  0.12227433
   0.44473843  0.38924486  0.29359857
   0.42479153  0.53155092  0.29408830
   0.42111221  0.51826476  0.35885648
Direct configuration=     9
   0.00026533  0.00019193  0.11045340
   0.05797006  0.11232637  0.10962281
   0.16525108  0.99832000  0.11040540
   0.22217218  0.10929699  0.10871505
   0.33227591  0.99849478  0.11084183
   0.38892532  0.10891382  0.10935406
   0.50015401  0.00013293  0.11103262
   0.55650797  0.11060966  0.11083386
   0.66786093  0.00133696  0.11064130
   0.72419375  0.11212934  0.11072991
   0.83494888  0.00145589  0.11060047
   0.89203771  0.11310143  0.11045786
   0.00403948  0.16923981  0.10978862
   0.06227330  0.28115369  0.10898540
   0.16977717  0.16763432  0.10816531
   0.23031249  0.27996807  0.10603295
   0.33309703  0.16343011  0.10698315
   0.38844403  0.27330828  0.10336503
   0.49986575  0.16439197  0.10937484
   0.55570754  0.27473652  0.10695564
   0.66786024  0.16660356  0.11072285
   0.72353566  0.27745162  0.11041676
   0.83593410  0.16799227  0.11057212
   0.89205804  0.27899244  0.11058761
   0.00405564  0.33483761  0.11001093
   0.05802240  0.44570067  0.10990853
   0.17575603  0.33788602  0.10681512
   0.23040670  0.45039176  0.10692784
   0.50042647  0.32932775  0.10332539
   0.66662176  0.33150405  0.10874781
   0.71901447  0.44223186  0.10830013
   0.83495309  0.33352816  0.11066888
   0.88851703  0.44432093  0.11056898
   0.00030401  0.50011078  0.11055334
   0.05384197  0.61090651  0.11057286
   0.16982892  0.50218231  0.10873629
   0.22216101  0.61292054  0.10913385
   0.38841821  0.61511038  0.10514339
   0.65843319  0.49398358  0.10631384
   0.71300793  0.60647871  0.10760081
   0.83080272  0.49872827  0.10980134
   0.88474451  0.60958425  0.10996031
   0.99673976  0.66544772  0.11049445
   0.05285268  0.77644070  0.11061654
   0.16526243  0.66699460  0.11041244
   0.22092969  0.77786338  0.11069440
   0.33311222  0.66969558  0.10762621
   0.38892281  0.78009261  0.10948644
   0.50027029  0.67101758  0.10584299
   0.55564548  0.78095877  0.10793419
   0.65831711  0.66426181  0.10827689
   0.71891584  0.77669803  0.10937674
   0.82650269  0.66325378  0.10936717
   0.88472310  0.77515801  0.11022326
   0.99672804  0.83132401  0.11065020
   0.05381834  0.94295976  0.11064433
   0.16459088  0.83233453  0.11078806
   0.22092671  0.94312479  0.11077666
   0.33228133  0.83387518  0.11076266
   0.38863372  0.94435237  0.11107667
   0.49985364  0.83555257  0.10942981
   0.55650462  0.94599216  0.11065001
   0.66660624  0.83511763  0.10950395
   0.72351508  0.94612101  0.11049033
   0.83075791  0.83204723  0.11011889
   0.88847185  0.94419710  0.11053622
   0.43863642  0.45699221  0.25280379
   0.33795359  0.32932947  0.10289954
   0.55084777  0.43584100  0.10298870
   0.33808911  0.50852934  0.10513631
   0.55051810  0.61466932  0.10719729
   0.44413098  0.47154928  0.12223813
   0.44473996  0.38926214  0.29355979
   0.42479454  0.53156582  0.29407580
   0.42112294  0.51825354  0.35883277
Direct configuration=    10
   0.00026690  0.00021857  0.11043095
   0.05804009  0.11235427  0.10959312
   0.16526011  0.99835066  0.11039166
   0.22218341  0.10932678  0.10866247
   0.33231820  0.99852019  0.11083455
   0.38889238  0.10891908  0.10929443
   0.50017767  0.00013567  0.11105278
   0.55646888  0.11060098  0.11082402
   0.66786731  0.00134415  0.11065441
   0.72420304  0.11213439  0.11074637
   0.83492394  0.00144151  0.11061046
   0.89204016  0.11309619  0.11046720
   0.00403417  0.16924968  0.10976332
   0.06234130  0.28118395  0.10896406
   0.16978222  0.16766676  0.10815095
   0.23028730  0.27995766  0.10609801
   0.33314332  0.16346432  0.10696126
   0.38845820  0.27329298  0.10344643
   0.49990186  0.16443047  0.10930408
   0.55566572  0.27472547  0.10693077
   0.66787097  0.16659798  0.11073872
   0.72353085  0.27746996  0.11040268
   0.83590820  0.16797692  0.11058392
   0.89205492  0.27899433  0.11059848
   0.00405705  0.33482949  0.10998093
   0.05808248  0.44572962  0.10987511
   0.17578532  0.33789875  0.10689011
   0.23038358  0.45036774  0.10701626
   0.50040364  0.32930421  0.10343278
   0.66661235  0.33152188  0.10868658
   0.71900744  0.44225979  0.10828645
   0.83493998  0.33352533  0.11068075
   0.88851836  0.44434264  0.11054428
   0.00030331  0.50009134  0.11053128
   0.05385668  0.61091169  0.11058845
   0.16983051  0.50215440  0.10872497
   0.22217484  0.61290008  0.10908312
   0.38843579  0.61512423  0.10523708
   0.65844622  0.49400220  0.10640534
   0.71297338  0.60646554  0.10767822
   0.83073974  0.49869745  0.10976793
   0.88474078  0.60959141  0.10993528
   0.99674510  0.66544208  0.11050947
   0.05287686  0.77645723  0.11063010
   0.16526639  0.66697322  0.11040425
   0.22091535  0.77786371  0.11071084
   0.33315103  0.66970316  0.10761199
   0.38888928  0.78004498  0.10943080
   0.50024866  0.67102224  0.10591127
   0.55560299  0.78090842  0.10792762
   0.65832949  0.66425748  0.10833710
   0.71890366  0.77665580  0.10937507
   0.82643428  0.66321525  0.10935124
   0.88472569  0.77514891  0.11020281
   0.99672749  0.83132407  0.11066178
   0.05383902  0.94297609  0.11065360
   0.16458248  0.83232128  0.11080529
   0.22091611  0.94311832  0.11078719
   0.33231905  0.83388176  0.11075692
   0.38860874  0.94434812  0.11109563
   0.49988480  0.83554518  0.10938652
   0.55646603  0.94595829  0.11064993
   0.66658982  0.83508484  0.10946976
   0.72350940  0.94608310  0.11048457
   0.83068455  0.83201424  0.11009983
   0.88846808  0.94416869  0.11051818
   0.43862396  0.45709293  0.25282266
   0.33795692  0.32934242  0.10293575
   0.55083253  0.43584322  0.10306233
   0.33809530  0.50852626  0.10520176
   0.55050389  0.61463994  0.10721572
   0.44414666  0.47158555  0.12221111
   0.44476004  0.38921816  0.29343030
   0.42480574  0.53167736  0.29401760
   0.42117798  0.51820693  0.35872110
Direct configuration=    11
   0.00026808  0.00023868  0.11041401
   0.05809294  0.11237533  0.10957072
   0.16526693  0.99837379  0.11038128
   0.22219188  0.10934925  0.10862279
   0.33235011  0.99853936  0.11082905
   0.38886752  0.10892304  0.10924944
   0.50019553  0.00013774  0.11106799
   0.55643938  0.11059442  0.11081659
   0.66787212  0.00134957  0.11066430
   0.72421005  0.11213820  0.11075879
   0.83490513  0.00143065  0.11061800
   0.89204201  0.11309224  0.11047425
   0.00403017  0.16925712  0.10974423
   0.06239262  0.28120678  0.10894796
   0.16978603  0.16769123  0.10814012
   0.23026830  0.27994981  0.10614711
   0.33317824  0.16349013  0.10694475
   0.38846888  0.27328144  0.10350785
   0.49992911  0.16445953  0.10925070
   0.55563416  0.27471713  0.10691201
   0.66787907  0.16659377  0.11075069
   0.72352723  0.27748381  0.11039205
   0.83588866  0.16796534  0.11059282
   0.89205256  0.27899575  0.11060668
   0.00405812  0.33482336  0.10995829