  53  53   0   0
  0.6566630E+02  0.1325440E-08  0.1312890E-08  0.2000000E-08  0.2000000E-16
  1.000000000000000E-004
  CAR 
 TS1_1-2                                 
      3.65259379    -26.12857719  301     -1.89414930      1.00000000
    -26.129  0.0000E+00  0.0000E+00  0.0000E+00  0.0000E+00
    -26.029  0.0000E+00  0.0000E+00  0.0000E+00  0.0000E+00
    -25.930  0.0000E+00  0.0000E+00  0.0000E+00  0.0000E+00
    -25.831  0.0000E+00  0.0000E+00  0.0000E+00  0.0000E+00
    -25.731  0.0000E+00  0.0000E+00  0.0000E+00  0.0000E+00
    -25.632  0.0000E+00  0.0000E+00  0.0000E+00  0.0000E+00
    -25.533  0.0000E+00  0.0000E+00  0.0000E+00  0.0000E+00
    -25.434  0.0000E+00  0.0000E+00  0.0000E+00  0.0000E+00
    -25.334  0.0000E+00  0.0000E+00  0.0000E+00  0.0000E+00
    -25.235  0.0000E+00  0.0000E+00  0.0000E+00  0.0000E+00
    -25.136  0.0000E+00  0.0000E+00  0.0000E+00  0.0000E+00
    -25.037  0.6738E-12  0.6738E-12  0.6689E-13  0.6689E-13
    -24.937  0.2184E-04  0.2184E-04  0.2168E-05  0.2168E-05
    -24.838  0.3726E+00  0.3726E+00  0.3699E-01  0.3699E-01
    -24.739  0.8153E+01  0.8153E+01  0.8464E+00  0.8464E+00
    -24.640  0.1547E+01  0.1547E+01  0.9999E+00  0.9999E+00
    -24.540  0.6485E-03  0.6485E-03  0.1000E+01  0.1000E+01
    -24.441  0.1617E-09  0.1617E-09  0.1000E+01  0.1000E+01
    -24.342  0.0000E+00  0.0000E+00  0.1000E+01  0.1000E+01
    -24.242  0.0000E+00  0.0000E+00  0.1000E+01  0.1000E+01
    -24.143  0.1447E-07  0.1447E-07  0.1000E+01  0.1000E+01
    -24.044  0.8779E-02  0.8779E-02  0.1001E+01  0.1001E+01
    -23.945  0.3752E+01  0.3752E+01  0.1373E+01  0.1373E+01
    -23.845  0.6248E+01  0.6248E+01  0.1994E+01  0.1994E+01
    -23.746  0.6530E-01  0.6530E-01  0.2000E+01  0.2000E+01
    -23.647  0.6076E-06  0.6076E-06  0.2000E+01  0.2000E+01
    -23.548  0.2237E-14  0.2237E-14  0.2000E+01  0.2000E+01
    -23.448  0.0000E+00  0.0000E+00  0.2000E+01  0.2000E+01
    -23.349  0.0000E+00  0.0000E+00  0.2000E+01  0.2000E+01
    -23.250  0.0000E+00  0.0000E+00  0.2000E+01  0.2000E+01
    -23.150  0.0000E+00  0.0000E+00  0.2000E+01  0.2000E+01
    -23.051  0.0000E+00  0.0000E+00  0.2000E+01  0.2000E+01
    -22.952  0.0000E+00  0.0000E+00  0.2000E+01  0.2000E+01
    -22.853  0.0000E+00  0.0000E+00  0.2000E+01  0.2000E+01
    -22.753  0.0000E+00  0.0000E+00  0.2000E+01  0.2000E+01
    -22.654  0.0000E+00  0.0000E+00  0.2000E+01  0.2000E+01
    -22.555  0.0000E+00  0.0000E+00  0.2000E+01  0.2000E+01
    -22.456  0.0000E+00  0.0000E+00  0.2000E+01  0.2000E+01
    -22.356  0.0000E+00  0.0000E+00  0.2000E+01  0.2000E+01
    -22.257  0.0000E+00  0.0000E+00  0.2000E+01  0.2000E+01
    -22.158  0.0000E+00  0.0000E+00  0.2000E+01  0.2000E+01
    -22.058  0.0000E+00  0.0000E+00  0.2000E+01  0.2000E+01
    -21.959  0.0000E+00  0.0000E+00  0.2000E+01  0.2000E+01
    -21.860  0.0000E+00  0.0000E+00  0.2000E+01  0.2000E+01
    -21.761  0.0000E+00  0.0000E+00  0.2000E+01  0.2000E+01
    -21.661  0.0000E+00  0.0000E+00  0.2000E+01  0.2000E+01
    -21.562  0.0000E+00  0.0000E+00  0.2000E+01  0.2000E+01
    -21.463  0.0000E+00  0.0000E+00  0.2000E+01  0.2000E+01
    -21.364  0.0000E+00  0.0000E+00  0.2000E+01  0.2000E+01
    -21.264  0.0000E+00  0.0000E+00  0.2000E+01  0.2000E+01
    -21.165  0.0000E+00  0.0000E+00  0.2000E+01  0.2000E+01
    -21.066  0.0000E+00  0.0000E+00  0.2000E+01  0.2000E+01
    -20.967  0.0000E+00  0.0000E+00  0.2000E+01  0.2000E+01
    -20.867  0.0000E+00  0.0000E+00  0.2000E+01  0.2000E+01
    -20.768  0.0000E+00  0.0000E+00  0.2000E+01  0.2000E+01
    -20.669  0.0000E+00  0.0000E+00  0.2000E+01  0.2000E+01
    -20.569  0.0000E+00  0.0000E+00  0.2000E+01  0.2000E+01
    -20.470  0.0000E+00  0.0000E+00  0.2000E+01  0.2000E+01
    -20.371  0.0000E+00  0.0000E+00  0.2000E+01  0.2000E+01
    -20.272  0.0000E+00  0.0000E+00  0.2000E+01  0.2000E+01
    -20.172  0.0000E+00  0.0000E+00  0.2000E+01  0.2000E+01
    -20.073  0.0000E+00  0.0000E+00  0.2000E+01  0.2000E+01
    -19.974  0.0000E+00  0.0000E+00  0.2000E+01  0.2000E+01
    -19.875  0.0000E+00  0.0000E+00  0.2000E+01  0.2000E+01
    -19.775  0.0000E+00  0.0000E+00  0.2000E+01  0.2000E+01
    -19.676  0.0000E+00  0.0000E+00  0.2000E+01  0.2000E+01
    -19.577  0.0000E+00  0.0000E+00  0.2000E+01  0.2000E+01
    -19.477  0.0000E+00  0.0000E+00  0.2000E+01  0.2000E+01
    -19.378  0.0000E+00  0.0000E+00  0.2000E+01  0.2000E+01
    -19.279  0.0000E+00  0.0000E+00  0.2000E+01  0.2000E+01
    -19.180  0.0000E+00  0.0000E+00  0.2000E+01  0.2000E+01
    -19.080  0.0000E+00  0.0000E+00  0.2000E+01  0.2000E+01
    -18.981  0.0000E+00  0.0000E+00  0.2000E+01  0.2000E+01
    -18.882  0.0000E+00  0.0000E+00  0.2000E+01  0.2000E+01
    -18.783  0.0000E+00  0.0000E+00  0.2000E+01  0.2000E+01
    -18.683  0.0000E+00  0.0000E+00  0.2000E+01  0.2000E+01
    -18.584  0.0000E+00  0.0000E+00  0.2000E+01  0.2000E+01
    -18.485  0.0000E+00  0.0000E+00  0.2000E+01  0.2000E+01
    -18.385  0.0000E+00  0.0000E+00  0.2000E+01  0.2000E+01
    -18.286  0.0000E+00  0.0000E+00  0.2000E+01  0.2000E+01
    -18.187  0.0000E+00  0.0000E+00  0.2000E+01  0.2000E+01
    -18.088  0.0000E+00  0.0000E+00  0.2000E+01  0.2000E+01
    -17.988  0.0000E+00  0.0000E+00  0.2000E+01  0.2000E+01
    -17.889  0.3299E-13  0.3299E-13  0.2000E+01  0.2000E+01
    -17.790  0.3125E-05  0.3125E-05  0.2000E+01  0.2000E+01
    -17.691  0.1485E+00  0.1485E+00  0.2015E+01  0.2015E+01
    -17.591  0.7265E+01  0.7265E+01  0.2736E+01  0.2736E+01
    -17.492  0.2657E+01  0.2657E+01  0.3000E+01  0.3000E+01
    -17.393  0.3253E+00  0.3253E+00  0.3032E+01  0.3032E+01
    -17.293  0.8042E+01  0.8042E+01  0.3830E+01  0.3830E+01
    -17.194  0.1708E+01  0.1708E+01  0.4000E+01  0.4000E+01
    -17.095  0.8439E-03  0.8439E-03  0.4000E+01  0.4000E+01
    -16.996  0.2553E-09  0.2553E-09  0.4000E+01  0.4000E+01
    -16.896  0.6882E-04  0.6882E-04  0.4000E+01  0.4000E+01
    -16.797  0.6867E+00  0.6867E+00  0.4068E+01  0.4068E+01
    -16.698  0.1482E+02  0.1482E+02  0.5539E+01  0.5539E+01
    -16.599  0.1238E+02  0.1238E+02  0.6768E+01  0.6768E+01
    -16.499  0.1181E+02  0.1181E+02  0.7940E+01  0.7940E+01
    -16.400  0.6036E+00  0.6036E+00  0.8000E+01  0.8000E+01
    -16.301  0.6304E-04  0.6304E-04  0.8000E+01  0.8000E+01
    -16.202  0.9816E-04  0.9816E-04  0.8000E+01  0.8000E+01
    -16.102  0.8005E+00  0.8005E+00  0.8079E+01  0.8079E+01
    -16.003  0.1980E+02  0.1980E+02  0.1005E+02  0.1005E+02
    -15.904  0.1805E+02  0.1805E+02  0.1184E+02  0.1184E+02
    -15.804  0.1640E+01  0.1640E+01  0.1200E+02  0.1200E+02
    -15.705  0.7127E-03  0.7127E-03  0.1200E+02  0.1200E+02
    -15.606  0.1892E-09  0.1892E-09  0.1200E+02  0.1200E+02
    -15.507  0.1592E-05  0.1592E-05  0.1200E+02  0.1200E+02
    -15.407  0.1277E+00  0.1277E+00  0.1201E+02  0.1201E+02
    -15.308  0.1181E+02  0.1181E+02  0.1319E+02  0.1319E+02
    -15.209  0.8177E+01  0.8177E+01  0.1400E+02  0.1400E+02
    -15.110  0.3060E-01  0.3060E-01  0.1400E+02  0.1400E+02
    -15.010  0.1081E-06  0.1081E-06  0.1400E+02  0.1400E+02
    -14.911  0.1616E-06  0.1616E-06  0.1400E+02  0.1400E+02
    -14.812  0.3276E-01  0.3276E-01  0.1400E+02  0.1400E+02
    -14.712  0.6025E+01  0.6025E+01  0.1460E+02  0.1460E+02
    -14.613  0.2600E+02  0.2600E+02  0.1718E+02  0.1718E+02
    -14.514  0.2462E+02  0.2462E+02  0.1963E+02  0.1963E+02
    -14.415  0.1364E+02  0.1364E+02  0.2098E+02  0.2098E+02
    -14.315  0.2041E+00  0.2041E+00  0.2100E+02  0.2100E+02
    -14.216  0.6886E+01  0.6886E+01  0.2168E+02  0.2168E+02
    -14.117  0.3104E+02  0.3104E+02  0.2477E+02  0.2477E+02
    -14.018  0.2402E+01  0.2402E+01  0.2500E+02  0.2500E+02
    -13.918  0.6145E+01  0.6145E+01  0.2561E+02  0.2561E+02
    -13.819  0.1282E+02  0.1282E+02  0.2689E+02  0.2689E+02
    -13.720  0.1144E+01  0.1144E+01  0.2700E+02  0.2700E+02
    -13.620  0.2886E-03  0.2886E-03  0.2700E+02  0.2700E+02
    -13.521  0.4232E-10  0.4232E-10  0.2700E+02  0.2700E+02
    -13.422  0.0000E+00  0.0000E+00  0.2700E+02  0.2700E+02
    -13.323  0.0000E+00  0.0000E+00  0.2700E+02  0.2700E+02
    -13.223  0.0000E+00  0.0000E+00  0.2700E+02  0.2700E+02
    -13.124  0.0000E+00  0.0000E+00  0.2700E+02  0.2700E+02
    -13.025  0.0000E+00  0.0000E+00  0.2700E+02  0.2700E+02
    -12.926  0.0000E+00  0.0000E+00  0.2700E+02  0.2700E+02
    -12.826  0.0000E+00  0.0000E+00  0.2700E+02  0.2700E+02
    -12.727  0.0000E+00  0.0000E+00  0.2700E+02  0.2700E+02
    -12.628  0.0000E+00  0.0000E+00  0.2700E+02  0.2700E+02
    -12.529  0.0000E+00  0.0000E+00  0.2700E+02  0.2700E+02
    -12.429  0.0000E+00  0.0000E+00  0.2700E+02  0.2700E+02
    -12.330  0.0000E+00  0.0000E+00  0.2700E+02  0.2700E+02
    -12.231  0.1433E-11  0.1433E-11  0.2700E+02  0.2700E+02
    -12.131  0.3526E-04  0.3526E-04  0.2700E+02  0.2700E+02
    -12.032  0.4645E+00  0.4645E+00  0.2705E+02  0.2705E+02
    -11.933  0.1168E+02  0.1168E+02  0.2821E+02  0.2821E+02
    -11.834  0.3265E+02  0.3265E+02  0.3145E+02  0.3145E+02
    -11.734  0.1661E+02  0.1661E+02  0.3310E+02  0.3310E+02
    -11.635  0.1442E+02  0.1442E+02  0.3453E+02  0.3453E+02
    -11.536  0.1060E+02  0.1060E+02  0.3558E+02  0.3558E+02
    -11.437  0.5214E+01  0.5214E+01  0.3610E+02  0.3610E+02
    -11.337  0.2370E+02  0.2370E+02  0.3845E+02  0.3845E+02
    -11.238  0.2250E+02  0.2250E+02  0.4068E+02  0.4068E+02
    -11.139  0.4221E+01  0.4221E+01  0.4110E+02  0.4110E+02
    -11.039  0.1485E+02  0.1485E+02  0.4258E+02  0.4258E+02
    -10.940  0.4256E+01  0.4256E+01  0.4300E+02  0.4300E+02
    -10.841  0.7598E-02  0.7598E-02  0.4300E+02  0.4300E+02
    -10.742  0.1097E-07  0.1097E-07  0.4300E+02  0.4300E+02
    -10.642  0.0000E+00  0.0000E+00  0.4300E+02  0.4300E+02
    -10.543  0.0000E+00  0.0000E+00  0.4300E+02  0.4300E+02
    -10.444  0.0000E+00  0.0000E+00  0.4300E+02  0.4300E+02
    -10.345  0.0000E+00  0.0000E+00  0.4300E+02  0.4300E+02
    -10.245  0.0000E+00  0.0000E+00  0.4300E+02  0.4300E+02
    -10.146  0.3964E-11  0.3964E-11  0.4300E+02  0.4300E+02
    -10.047  0.6684E-04  0.6684E-04  0.4300E+02  0.4300E+02
     -9.947  0.6144E+00  0.6144E+00  0.4306E+02  0.4306E+02
     -9.848  0.1060E+02  0.1060E+02  0.4411E+02  0.4411E+02
     -9.749  0.1057E+02  0.1057E+02  0.4516E+02  0.4516E+02
     -9.650  0.2680E+02  0.2680E+02  0.4782E+02  0.4782E+02
     -9.550  0.1180E+02  0.1180E+02  0.4899E+02  0.4899E+02
     -9.451  0.5587E-01  0.5587E-01  0.4900E+02  0.4900E+02
     -9.352  0.2790E-06  0.2790E-06  0.4900E+02  0.4900E+02
     -9.253  0.0000E+00  0.0000E+00  0.4900E+02  0.4900E+02
     -9.153  0.0000E+00  0.0000E+00  0.4900E+02  0.4900E+02
     -9.054  0.0000E+00  0.0000E+00  0.4900E+02  0.4900E+02
     -8.955  0.5482E-11  0.5482E-11  0.4900E+02  0.4900E+02
     -8.855  0.8184E-04  0.8184E-04  0.4900E+02  0.4900E+02
     -8.756  0.6687E+00  0.6687E+00  0.4907E+02  0.4907E+02
     -8.657  0.8438E+01  0.8438E+01  0.4990E+02  0.4990E+02
     -8.558  0.2399E+01  0.2399E+01  0.5014E+02  0.5014E+02
     -8.458  0.8229E+01  0.8229E+01  0.5096E+02  0.5096E+02
     -8.359  0.3566E+01  0.3566E+01  0.5131E+02  0.5131E+02
     -8.260  0.2276E+02  0.2276E+02  0.5357E+02  0.5357E+02
     -8.161  0.4413E+01  0.4413E+01  0.5401E+02  0.5401E+02
     -8.061  0.1118E+02  0.1118E+02  0.5512E+02  0.5512E+02
     -7.962  0.1970E+02  0.1970E+02  0.5708E+02  0.5708E+02
     -7.863  0.1689E+02  0.1689E+02  0.5875E+02  0.5875E+02
     -7.764  0.2480E+01  0.2480E+01  0.5900E+02  0.5900E+02
     -7.664  0.2913E-01  0.2913E-01  0.5900E+02  0.5900E+02
     -7.565  0.7136E+01  0.7136E+01  0.5971E+02  0.5971E+02
     -7.466  0.2502E+02  0.2502E+02  0.6219E+02  0.6219E+02
     -7.366  0.2301E+02  0.2301E+02  0.6448E+02  0.6448E+02
     -7.267  0.2784E+02  0.2784E+02  0.6724E+02  0.6724E+02
     -7.168  0.2652E+02  0.2652E+02  0.6988E+02  0.6988E+02
     -7.069  0.1812E+02  0.1812E+02  0.7167E+02  0.7167E+02
     -6.969  0.1310E+02  0.1310E+02  0.7297E+02  0.7297E+02
     -6.870  0.8927E+01  0.8927E+01  0.7386E+02  0.7386E+02
     -6.771  0.1872E+02  0.1872E+02  0.7572E+02  0.7572E+02
     -6.672  0.1154E+02  0.1154E+02  0.7686E+02  0.7686E+02
     -6.572  0.1479E+01  0.1479E+01  0.7701E+02  0.7701E+02
     -6.473  0.9270E+01  0.9270E+01  0.7793E+02  0.7793E+02
     -6.374  0.2695E+02  0.2695E+02  0.8061E+02  0.8061E+02
     -6.274  0.5654E+01  0.5654E+01  0.8117E+02  0.8117E+02
     -6.175  0.1771E+02  0.1771E+02  0.8293E+02  0.8293E+02
     -6.076  0.1070E+02  0.1070E+02  0.8399E+02  0.8399E+02
     -5.977  0.9149E+01  0.9149E+01  0.8490E+02  0.8490E+02
     -5.877  0.1301E+01  0.1301E+01  0.8503E+02  0.8503E+02
     -5.778  0.9632E+01  0.9632E+01  0.8598E+02  0.8598E+02
     -5.679  0.2392E+02  0.2392E+02  0.8836E+02  0.8836E+02
     -5.580  0.1900E+02  0.1900E+02  0.9024E+02  0.9024E+02
     -5.480  0.7574E+01  0.7574E+01  0.9100E+02  0.9100E+02
     -5.381  0.3323E+00  0.3323E+00  0.9103E+02  0.9103E+02
     -5.282  0.9905E+01  0.9905E+01  0.9201E+02  0.9201E+02
     -5.182  0.1080E+02  0.1080E+02  0.9308E+02  0.9308E+02
     -5.083  0.8665E+01  0.8665E+01  0.9394E+02  0.9394E+02
     -4.984  0.7973E+01  0.7973E+01  0.9474E+02  0.9474E+02
     -4.885  0.2194E+02  0.2194E+02  0.9691E+02  0.9691E+02
     -4.785  0.5945E+01  0.5945E+01  0.9750E+02  0.9750E+02
     -4.686  0.1633E+02  0.1633E+02  0.9912E+02  0.9912E+02
     -4.587  0.1182E+02  0.1182E+02  0.1003E+03  0.1003E+03
     -4.488  0.2111E+02  0.2111E+02  0.1024E+03  0.1024E+03
     -4.388  0.1754E+02  0.1754E+02  0.1041E+03  0.1041E+03
     -4.289  0.2317E+02  0.2317E+02  0.1064E+03  0.1064E+03
     -4.190  0.1462E+02  0.1462E+02  0.1079E+03  0.1079E+03
     -4.091  0.2336E+02  0.2336E+02  0.1102E+03  0.1102E+03
     -3.991  0.1791E+02  0.1791E+02  0.1120E+03  0.1120E+03
     -3.892  0.1512E+02  0.1512E+02  0.1135E+03  0.1135E+03
     -3.793  0.2084E+02  0.2084E+02  0.1156E+03  0.1156E+03
     -3.693  0.2911E+02  0.2911E+02  0.1184E+03  0.1184E+03
     -3.594  0.2002E+02  0.2002E+02  0.1204E+03  0.1204E+03
     -3.495  0.2764E+02  0.2764E+02  0.1232E+03  0.1232E+03
     -3.396  0.2385E+02  0.2385E+02  0.1255E+03  0.1255E+03
     -3.296  0.8280E+01  0.8280E+01  0.1264E+03  0.1264E+03
     -3.197  0.1196E+02  0.1196E+02  0.1276E+03  0.1276E+03
     -3.098  0.4500E+01  0.4500E+01  0.1280E+03  0.1280E+03
     -2.999  0.2436E-01  0.2436E-01  0.1280E+03  0.1280E+03
     -2.899  0.3734E+01  0.3734E+01  0.1284E+03  0.1284E+03
     -2.800  0.6272E+01  0.6272E+01  0.1290E+03  0.1290E+03
     -2.701  0.3681E+01  0.3681E+01  0.1294E+03  0.1294E+03
     -2.601  0.1266E+02  0.1266E+02  0.1306E+03  0.1306E+03
     -2.502  0.3859E+01  0.3859E+01  0.1310E+03  0.1310E+03
     -2.403  0.2834E+01  0.2834E+01  0.1313E+03  0.1313E+03
     -2.304  0.1473E+02  0.1473E+02  0.1327E+03  0.1327E+03
     -2.204  0.6108E+01  0.6108E+01  0.1333E+03  0.1333E+03
     -2.105  0.1554E+02  0.1554E+02  0.1349E+03  0.1349E+03
     -2.006  0.1083E+01  0.1083E+01  0.1350E+03  0.1350E+03
     -1.907  0.1929E-03  0.1929E-03  0.1350E+03  0.1350E+03
     -1.807  0.2149E-10  0.2149E-10  0.1350E+03  0.1350E+03
     -1.708  0.0000E+00  0.0000E+00  0.1350E+03  0.1350E+03
     -1.609  0.0000E+00  0.0000E+00  0.1350E+03  0.1350E+03
     -1.509  0.1081E-10  0.1081E-10  0.1350E+03  0.1350E+03
     -1.410  0.1248E-03  0.1248E-03  0.1350E+03  0.1350E+03
     -1.311  0.7998E+00  0.7998E+00  0.1351E+03  0.1351E+03
     -1.212  0.8458E+01  0.8458E+01  0.1359E+03  0.1359E+03
     -1.112  0.8153E+00  0.8153E+00  0.1360E+03  0.1360E+03
     -1.013  0.4476E-01  0.4476E-01  0.1360E+03  0.1360E+03
     -0.914  0.5796E+01  0.5796E+01  0.1366E+03  0.1366E+03
     -0.815  0.1203E+02  0.1203E+02  0.1378E+03  0.1378E+03
     -0.715  0.2266E+02  0.2266E+02  0.1400E+03  0.1400E+03
     -0.616  0.2176E+02  0.2176E+02  0.1422E+03  0.1422E+03
     -0.517  0.1310E+02  0.1310E+02  0.1435E+03  0.1435E+03
     -0.417  0.5811E+01  0.5811E+01  0.1441E+03  0.1441E+03
     -0.318  0.1939E+02  0.1939E+02  0.1460E+03  0.1460E+03
     -0.219  0.2609E+02  0.2609E+02  0.1486E+03  0.1486E+03
     -0.120  0.1594E+02  0.1594E+02  0.1502E+03  0.1502E+03
     -0.020  0.1205E+02  0.1205E+02  0.1514E+03  0.1514E+03
      0.079  0.2440E+02  0.2440E+02  0.1538E+03  0.1538E+03
      0.178  0.2942E+01  0.2942E+01  0.1541E+03  0.1541E+03
      0.277  0.1425E+02  0.1425E+02  0.1555E+03  0.1555E+03
      0.377  0.1930E+02  0.1930E+02  0.1574E+03  0.1574E+03
      0.476  0.2583E+02  0.2583E+02  0.1600E+03  0.1600E+03
      0.575  0.3096E+02  0.3096E+02  0.1630E+03  0.1630E+03
      0.674  0.1302E+02  0.1302E+02  0.1643E+03  0.1643E+03
      0.774  0.1439E+02  0.1439E+02  0.1658E+03  0.1658E+03
      0.873  0.1125E+02  0.1125E+02  0.1669E+03  0.1669E+03
      0.972  0.1146E+02  0.1146E+02  0.1680E+03  0.1680E+03
      1.072  0.2402E+02  0.2402E+02  0.1704E+03  0.1704E+03
      1.171  0.4151E+02  0.4151E+02  0.1745E+03  0.1745E+03
      1.270  0.2012E+02  0.2012E+02  0.1765E+03  0.1765E+03
      1.369  0.1676E+02  0.1676E+02  0.1782E+03  0.1782E+03
      1.469  0.1892E+02  0.1892E+02  0.1801E+03  0.1801E+03
      1.568  0.1648E+02  0.1648E+02  0.1817E+03  0.1817E+03
      1.667  0.1209E+02  0.1209E+02  0.1829E+03  0.1829E+03
      1.766  0.9711E+01  0.9711E+01  0.1839E+03  0.1839E+03
      1.866  0.1457E+01  0.1457E+01  0.1840E+03  0.1840E+03
      1.965  0.6120E+00  0.6119E+00  0.1841E+03  0.1841E+03
      2.064  0.9245E+01  0.9245E+01  0.1850E+03  0.1850E+03
      2.164  0.9615E+01  0.9608E+01  0.1859E+03  0.1859E+03
      2.263  0.1363E+02  0.1311E+02  0.1873E+03  0.1872E+03
      2.362  0.1687E+02  0.1737E+02  0.1890E+03  0.1890E+03
      2.461  0.3953E+00  0.4276E+00  0.1890E+03  0.1890E+03
      2.561  0.1973E-04  0.2220E-04  0.1890E+03  0.1890E+03
      2.660  0.5659E-12  0.6744E-12  0.1890E+03  0.1890E+03
      2.759  0.0000E+00  0.0000E+00  0.1890E+03  0.1890E+03
      2.858  0.0000E+00  0.0000E+00  0.1890E+03  0.1890E+03
      2.958  0.0000E+00  0.0000E+00  0.1890E+03  0.1890E+03
      3.057  0.0000E+00  0.0000E+00  0.1890E+03  0.1890E+03
      3.156  0.0000E+00  0.0000E+00  0.1890E+03  0.1890E+03
      3.256  0.0000E+00  0.0000E+00  0.1890E+03  0.1890E+03
      3.355  0.0000E+00  0.0000E+00  0.1890E+03  0.1890E+03
      3.454  0.0000E+00  0.0000E+00  0.1890E+03  0.1890E+03
      3.553  0.0000E+00  0.0000E+00  0.1890E+03  0.1890E+03
      3.653  0.0000E+00  0.0000E+00  0.1890E+03  0.1890E+03
