   53   53    1    2
  0.6566630E+02  0.1325440E-08  0.1312890E-08  0.2000000E-08  0.2000000E-16
  1.000000000000000E-004
  CAR 
 TS1_1-2                                 
    270      1    189
 
  0.1262379E-14  0.1262379E-14  0.1262379E-14  0.1000000E+01
    1      -24.774888    -24.774888
    2      -23.933203    -23.933203
    3      -17.613612    -17.613612
    4      -17.327286    -17.327286
    5      -16.742571    -16.742571
    6      -16.709955    -16.709955
    7      -16.613406    -16.613406
    8      -16.554509    -16.554509
    9      -16.050486    -16.050486
   10      -16.012308    -16.012308
   11      -16.002583    -16.002582
   12      -15.938985    -15.938985
   13      -15.325426    -15.325426
   14      -15.307827    -15.307827
   15      -14.715499    -14.715499
   16      -14.657958    -14.657958
   17      -14.614991    -14.614991
   18      -14.612195    -14.612195
   19      -14.592264    -14.592264
   20      -14.500571    -14.500571
   21      -14.494531    -14.494531
   22      -14.201363    -14.201363
   23      -14.185988    -14.185988
   24      -14.172357    -14.172357
   25      -14.154587    -14.154587
   26      -13.923472    -13.923472
   27      -13.862015    -13.862015
   28      -11.972550    -11.972550
   29      -11.907126    -11.907126
   30      -11.878486    -11.878486
   31      -11.870791    -11.870791
   32      -11.825232    -11.825232
   33      -11.815876    -11.815876
   34      -11.690328    -11.690328
   35      -11.642363    -11.642363
   36      -11.542983    -11.542983
   37      -11.388854    -11.388854
   38      -11.346973    -11.346973
   39      -11.338108    -11.338108
   40      -11.327687    -11.327687
   41      -11.255734    -11.255734
   42      -11.092446    -11.092446
   43      -11.052477    -11.052477
   44       -9.892751     -9.892751
   45       -9.820496     -9.820496
   46       -9.709778     -9.709778
   47       -9.688695     -9.688695
   48       -9.655379     -9.655379
   49       -9.644140     -9.644140
   50       -8.703079     -8.703080
   51       -8.519838     -8.519839
   52       -8.334638     -8.334638
   53       -8.303523     -8.303523
   54       -8.278275     -8.278274
   55       -8.078422     -8.078422
   56       -8.054650     -8.054650
   57       -7.978643     -7.978643
   58       -7.951578     -7.951578
   59       -7.887775     -7.887775
   60       -7.565233     -7.565233
   61       -7.534488     -7.534488
   62       -7.484221     -7.484221
   63       -7.467024     -7.467024
   64       -7.377908     -7.377908
   65       -7.360820     -7.360820
   66       -7.342979     -7.342979
   67       -7.331876     -7.331875
   68       -7.243793     -7.243793
   69       -7.200675     -7.200675
   70       -7.188026     -7.188026
   71       -7.154331     -7.154331
   72       -7.068060     -7.068060
   73       -7.037432     -7.037432
   74       -6.876274     -6.876274
   75       -6.849608     -6.849608
   76       -6.788282     -6.788282
   77       -6.710622     -6.710622
   78       -6.492250     -6.492250
   79       -6.435300     -6.435300
   80       -6.419806     -6.419806
   81       -6.397061     -6.397061
   82       -6.230734     -6.230734
   83       -6.219877     -6.219877
   84       -6.127541     -6.127541
   85       -6.021629     -6.021629
   86       -5.809523     -5.809523
   87       -5.739629     -5.739629
   88       -5.710975     -5.710975
   89       -5.683858     -5.683858
   90       -5.609261     -5.609261
   91       -5.574804     -5.574804
   92       -5.313993     -5.313993
   93       -5.251147     -5.251147
   94       -5.139209     -5.139209
   95       -4.970057     -4.970057
   96       -4.964882     -4.964882
   97       -4.937367     -4.937366
   98       -4.775390     -4.775390
   99       -4.742962     -4.742962
  100       -4.654345     -4.654344
  101       -4.568128     -4.568128
  102       -4.519054     -4.519054
  103       -4.473757     -4.473757
  104       -4.463109     -4.463109
  105       -4.347925     -4.347925
  106       -4.319126     -4.319126
  107       -4.304483     -4.304483
  108       -4.209571     -4.209571
  109       -4.155166     -4.155166
  110       -4.105661     -4.105661
  111       -4.094585     -4.094585
  112       -4.023582     -4.023582
  113       -3.956764     -3.956764
  114       -3.892631     -3.892631
  115       -3.807310     -3.807310
  116       -3.791782     -3.791782
  117       -3.780919     -3.780919
  118       -3.728431     -3.728431
  119       -3.695419     -3.695419
  120       -3.646240     -3.646241
  121       -3.588965     -3.588965
  122       -3.537210     -3.537210
  123       -3.506524     -3.506524
  124       -3.489544     -3.489544
  125       -3.467739     -3.467739
  126       -3.401633     -3.401634
  127       -3.283896     -3.283896
  128       -3.202303     -3.202303
  129       -2.887676     -2.887676
  130       -2.687403     -2.687403
  131       -2.612607     -2.612607
  132       -2.380521     -2.380521
  133       -2.328336     -2.328336
  134       -2.183995     -2.183995
  135       -2.151506     -2.151506
  136       -1.261116     -1.261116
  137       -0.920585     -0.920585
  138       -0.820562     -0.820562
  139       -0.784590     -0.784590
  140       -0.732770     -0.732770
  141       -0.689801     -0.689801
  142       -0.674796     -0.674796
  143       -0.592049     -0.592049
  144       -0.516841     -0.516841
  145       -0.353649     -0.353649
  146       -0.349753     -0.349753
  147       -0.299799     -0.299799
  148       -0.249984     -0.249984
  149       -0.215519     -0.215519
  150       -0.201987     -0.201987
  151       -0.086061     -0.086061
  152        0.012062      0.012062
  153        0.012994      0.012994
  154        0.044247      0.044247
  155        0.231550      0.231550
  156        0.278487      0.278487
  157        0.324594      0.324594
  158        0.390295      0.390295
  159        0.418470      0.418470
  160        0.478968      0.478968
  161        0.489633      0.489633
  162        0.505835      0.505835
  163        0.564463      0.564463
  164        0.579489      0.579489
  165        0.691322      0.691322
  166        0.750140      0.750140
  167        0.847067      0.847067
  168        0.917195      0.917195
  169        1.028424      1.028424
  170        1.050798      1.050798
  171        1.074010      1.074011
  172        1.095889      1.095889
  173        1.136470      1.136470
  174        1.143871      1.143871
  175        1.149222      1.149222
  176        1.201525      1.201526
  177        1.267139      1.267139
  178        1.360232      1.360232
  179        1.373045      1.373045
  180        1.411055      1.411055
  181        1.514068      1.514068
  182        1.547661      1.547661
  183        1.630319      1.630319
  184        1.728982      1.728982
  185        2.019760      2.019761
  186        2.113343      2.113342
  187        2.247066      2.247425
  188        2.266792      2.270685
  189        2.298084      2.298904
