 vasp.5.3.5 31Mar14 (build Oct 09 2016 14:59:48) gamma-only                     
  
 executed on             LinuxIFC date 2017.08.01  10:36:29
 running on   48 total cores
 distrk:  each k-point on   48 cores,    1 groups
 distr:  one band on NCORES_PER_BAND=  48 cores,    1 groups


--------------------------------------------------------------------------------------------------------


 INCAR:
 POTCAR:    PAW_PBE P 17Jan2003                   
 POTCAR:   PAW_PBE Ru 06Sep2000                   
 POTCAR:   PAW_PBE C 08Apr2002                    
 POTCAR:   PAW_PBE O 08Apr2002                    

 ----------------------------------------------------------------------------- 
|                                                                             |
|           W    W    AA    RRRRR   N    N  II  N    N   GGGG   !!!           |
|           W    W   A  A   R    R  NN   N  II  NN   N  G    G  !!!           |
|           W    W  A    A  R    R  N N  N  II  N N  N  G       !!!           |
|           W WW W  AAAAAA  RRRRR   N  N N  II  N  N N  G  GGG   !            |
|           WW  WW  A    A  R   R   N   NN  II  N   NN  G    G                |
|           W    W  A    A  R    R  N    N  II  N    N   GGGG   !!!           |
|                                                                             |
|      For optimal performance we recommend to set                            |
|        NCORE= 4 - approx SQRT( number of cores)                             |
|      NCORE specifies how many cores store one orbital (NPAR=cpu/NCORE).     |
|      This setting can  greatly improve the performance of VASP for DFT.     |
|      The default, NPAR=number of cores might be grossly inefficient         |
|      on modern multi-core architectures or massively parallel machines.     |
|      Do your own testing !!!!                                               |
|      Unfortunately you need to use the default for GW and RPA calculations. |
|      (for HF NCORE is supported but not extensively tested yet)             |
|                                                                             |
 ----------------------------------------------------------------------------- 

 POTCAR:    PAW_PBE P 17Jan2003                   
   VRHFIN =P : s2p3                                                             
   LEXCH  = PE                                                                  
   EATOM  =   176.0430 eV,   12.9388 Ry                                         
                                                                                
   TITEL  = PAW_PBE P 17Jan2003                                                 
   LULTRA =        F    use ultrasoft PP ?                                      
   IUNSCR =        1    unscreen: 0-lin 1-nonlin 2-no                           
   RPACOR =    1.500    partial core radius                                     
   POMASS =   30.974; ZVAL   =    5.000    mass and valenz                      
   RCORE  =    1.900    outmost cutoff radius                                   
   RWIGS  =    2.330; RWIGS  =    1.233    wigner-seitz radius (au A)           
   ENMAX  =  270.000; ENMIN  =  191.280 eV                                      
   ICORE  =        2    local potential                                         
   LCOR   =        T    correct aug charges                                     
   LPAW   =        T    paw PP                                                  
   EAUG   =  342.924                                                            
   DEXC   =    -.002                                                            
   RMAX   =    2.887    core radius for proj-oper                               
   RAUG   =    1.300    factor for augmentation sphere                          
   RDEP   =    1.931    radius for radial grids                                 
   QCUT   =   -4.330; QGAM   =    8.659    optimization parameters              
                                                                                
   Description                                                                  
     l     E      TYP  RCUT    TYP  RCUT                                        
     0   .000     23  1.900                                                     
     0   .000     23  1.900                                                     
     1   .000     23  1.900                                                     
     1   .000     23  1.900                                                     
     2   .000     23  1.900                                                     
  local pseudopotential read in
  partial core-charges read in
  atomic valenz-charges read in
  non local Contribution for L=           0  read in
    real space projection operators read in
  non local Contribution for L=           0  read in
    real space projection operators read in
  non local Contribution for L=           1  read in
    real space projection operators read in
  non local Contribution for L=           1  read in
    real space projection operators read in
    PAW grid and wavefunctions read in
 
   number of l-projection  operators is LMAX  =           4
   number of lm-projection operators is LMMAX =           8
 
 POTCAR:   PAW_PBE Ru 06Sep2000                   
   VRHFIN =Ru: s1 d7                                                            
   LEXCH  = PE                                                                  
   EATOM  =   454.9988 eV,   33.4415 Ry                                         
                                                                                
   TITEL  = PAW_PBE Ru 06Sep2000                                                
   LULTRA =        F    use ultrasoft PP ?                                      
   IUNSCR =        1    unscreen: 0-lin 1-nonlin 2-no                           
   RPACOR =    2.170    partial core radius                                     
   POMASS =  101.070; ZVAL   =    8.000    mass and valenz                      
   RCORE  =    2.600    outmost cutoff radius                                   
   RWIGS  =    2.650; RWIGS  =    1.402    wigner-seitz radius (au A)           
   ENMAX  =  213.276; ENMIN  =  159.957 eV                                      
   RCLOC  =    1.830    cutoff for local pot                                    
   LCOR   =        T    correct aug charges                                     
   LPAW   =        T    paw PP                                                  
   EAUG   =  333.494                                                            
   DEXC   =    -.052                                                            
   RMAX   =    3.157    core radius for proj-oper                               
   RAUG   =    1.300    factor for augmentation sphere                          
   RDEP   =    2.687    radius for radial grids                                 
   QCUT   =   -3.959; QGAM   =    7.918    optimization parameters              
                                                                                
   Description                                                                  
     l     E      TYP  RCUT    TYP  RCUT                                        
     2   .000     23  2.600                                                     
     2   .000     23  2.600                                                     
     0   .000     23  2.600                                                     
     0   .000     23  2.600                                                     
     1  -.200     23  2.600                                                     
     1  2.000     23  2.600                                                     
     3   .000      7   .000                                                     
  local pseudopotential read in
  partial core-charges read in
  atomic valenz-charges read in
  non local Contribution for L=           2  read in
    real space projection operators read in
  non local Contribution for L=           2  read in
    real space projection operators read in
  non local Contribution for L=           0  read in
    real space projection operators read in
  non local Contribution for L=           0  read in
    real space projection operators read in
  non local Contribution for L=           1  read in
    real space projection operators read in
  non local Contribution for L=           1  read in
    real space projection operators read in
    PAW grid and wavefunctions read in
 
   number of l-projection  operators is LMAX  =           6
   number of lm-projection operators is LMMAX =          18
 
 POTCAR:   PAW_PBE C 08Apr2002                    
   VRHFIN =C: s2p2                                                              
   LEXCH  = PE                                                                  
   EATOM  =   147.1560 eV,   10.8157 Ry                                         
                                                                                
   TITEL  = PAW_PBE C 08Apr2002                                                 
   LULTRA =        F    use ultrasoft PP ?                                      
   IUNSCR =        0    unscreen: 0-lin 1-nonlin 2-no                           
   RPACOR =     .000    partial core radius                                     
   POMASS =   12.011; ZVAL   =    4.000    mass and valenz                      
   RCORE  =    1.500    outmost cutoff radius                                   
   RWIGS  =    1.630; RWIGS  =     .863    wigner-seitz radius (au A)           
   ENMAX  =  400.000; ENMIN  =  300.000 eV                                      
   ICORE  =        2    local potential                                         
   LCOR   =        T    correct aug charges                                     
   LPAW   =        T    paw PP                                                  
   EAUG   =  644.873                                                            
   DEXC   =     .000                                                            
   RMAX   =    2.266    core radius for proj-oper                               
   RAUG   =    1.300    factor for augmentation sphere                          
   RDEP   =    1.501    radius for radial grids                                 
   RDEPT  =    1.300    core radius for aug-charge                              
   QCUT   =   -5.516; QGAM   =   11.032    optimization parameters              
                                                                                
   Description                                                                  
     l     E      TYP  RCUT    TYP  RCUT                                        
     0   .000     23  1.200                                                     
     0   .000     23  1.200                                                     
     1   .000     23  1.500                                                     
     1  2.500     23  1.500                                                     
     2   .000      7  1.500                                                     
  local pseudopotential read in
  atomic valenz-charges read in
  non local Contribution for L=           0  read in
    real space projection operators read in
  non local Contribution for L=           0  read in
    real space projection operators read in
  non local Contribution for L=           1  read in
    real space projection operators read in
  non local Contribution for L=           1  read in
    real space projection operators read in
    PAW grid and wavefunctions read in
 
   number of l-projection  operators is LMAX  =           4
   number of lm-projection operators is LMMAX =           8
 
 POTCAR:   PAW_PBE O 08Apr2002                    
   VRHFIN =O: s2p4                                                              
   LEXCH  = PE                                                                  
   EATOM  =   432.3788 eV,   31.7789 Ry                                         
                                                                                
   TITEL  = PAW_PBE O 08Apr2002                                                 
   LULTRA =        F    use ultrasoft PP ?                                      
   IUNSCR =        0    unscreen: 0-lin 1-nonlin 2-no                           
   RPACOR =     .000    partial core radius                                     
   POMASS =   16.000; ZVAL   =    6.000    mass and valenz                      
   RCORE  =    1.520    outmost cutoff radius                                   
   RWIGS  =    1.550; RWIGS  =     .820    wigner-seitz radius (au A)           
   ENMAX  =  400.000; ENMIN  =  300.000 eV                                      
   ICORE  =        2    local potential                                         
   LCOR   =        T    correct aug charges                                     
   LPAW   =        T    paw PP                                                  
   EAUG   =  605.392                                                            
   DEXC   =     .000                                                            
   RMAX   =    2.264    core radius for proj-oper                               
   RAUG   =    1.300    factor for augmentation sphere                          
   RDEP   =    1.550    radius for radial grids                                 
   QCUT   =   -5.520; QGAM   =   11.041    optimization parameters              
                                                                                
   Description                                                                  
     l     E      TYP  RCUT    TYP  RCUT                                        
     0   .000     23  1.200                                                     
     0  -.700     23  1.200                                                     
     1   .000     23  1.520                                                     
     1   .600     23  1.520                                                     
     2   .000      7  1.500                                                     
  local pseudopotential read in
  atomic valenz-charges read in
  non local Contribution for L=           0  read in
    real space projection operators read in
  non local Contribution for L=           0  read in
    real space projection operators read in
  non local Contribution for L=           1  read in
    real space projection operators read in
  non local Contribution for L=           1  read in
    real space projection operators read in
    PAW grid and wavefunctions read in
 
   number of l-projection  operators is LMAX  =           4
   number of lm-projection operators is LMMAX =           8
 
 Optimization of the real space projectors (new method)

 maximal supplied QI-value         = 19.84
 optimisation between [QCUT,QGAM] = [ 11.31, 22.82] = [ 35.82,145.81] Ry 
 Optimized for a Real-space Cutoff    1.20 Angstroem

   l    n(q)    QCUT    max X(q) W(low)/X(q) W(high)/X(q)  e(spline) 
   0      8    11.310     6.651    0.17E-04    0.25E-05    0.49E-08
   0      8    11.310    90.285    0.15E-03    0.18E-03    0.54E-07
   1      8    11.310     4.328    0.24E-04    0.36E-04    0.20E-07
   1      8    11.310    54.583    0.15E-03    0.19E-03    0.85E-07
 Optimization of the real space projectors (new method)

 maximal supplied QI-value         = 14.36
 optimisation between [QCUT,QGAM] = [ 11.35, 22.84] = [ 36.05,146.02] Ry 
 Optimized for a Real-space Cutoff    1.56 Angstroem

   l    n(q)    QCUT    max X(q) W(low)/X(q) W(high)/X(q)  e(spline) 
   2     10    11.346     4.169    0.15E-04    0.62E-05    0.74E-07
   2     10    11.346    32.777    0.11E-03    0.20E-03    0.80E-06
   0     11    11.346    20.036    0.14E-04    0.81E-05    0.45E-07
   0     11    11.346    52.608    0.34E-04    0.95E-04    0.63E-06
   1     10    11.346     8.373    0.25E-04    0.52E-05    0.59E-07
   1     10    11.346    10.836    0.95E-04    0.37E-05    0.16E-06
 Optimization of the real space projectors (new method)

 maximal supplied QI-value         = 25.13
 optimisation between [QCUT,QGAM] = [ 11.31, 22.87] = [ 35.82,146.48] Ry 
 Optimized for a Real-space Cutoff    1.03 Angstroem

   l    n(q)    QCUT    max X(q) W(low)/X(q) W(high)/X(q)  e(spline) 
   0      7    11.310     5.582    0.48E-04    0.13E-03    0.16E-07
   0      7    11.310    69.432    0.20E-03    0.89E-03    0.19E-06
   1      6    11.310     2.780    0.41E-04    0.48E-04    0.42E-07
   1      6    11.310     4.549    0.12E-03    0.21E-03    0.99E-07
 Optimization of the real space projectors (new method)

 maximal supplied QI-value         = 24.76
 optimisation between [QCUT,QGAM] = [ 11.39, 22.77] = [ 36.31,145.25] Ry 
 Optimized for a Real-space Cutoff    1.03 Angstroem

   l    n(q)    QCUT    max X(q) W(low)/X(q) W(high)/X(q)  e(spline) 
   0      7    11.387     4.192    0.55E-04    0.17E-03    0.22E-07
   0      7    11.387     8.473    0.18E-03    0.93E-03    0.17E-06
   1      6    11.387     2.474    0.16E-03    0.14E-03    0.20E-07
   1      6    11.387     3.912    0.19E-03    0.47E-03    0.17E-06
  PAW_PBE P 17Jan2003                   :
 energy of atom  1       EATOM= -176.0430
 kinetic energy error for atom=    0.0013 (will be added to EATOM!!)
 PAW_PBE Ru 06Sep2000                   :
 energy of atom  2       EATOM= -454.9988
 kinetic energy error for atom=    0.0015 (will be added to EATOM!!)
 PAW_PBE C 08Apr2002                    :
 energy of atom  3       EATOM= -147.1560
 kinetic energy error for atom=    0.0076 (will be added to EATOM!!)
 PAW_PBE O 08Apr2002                    :
 energy of atom  4       EATOM= -432.3788
 kinetic energy error for atom=    0.0224 (will be added to EATOM!!)
 
 
 POSCAR: P    Ru   C    O                        
  positions in direct lattice
  velocities in cartesian coordinates
 exchange correlation table for  LEXCH =        8
   RHO(1)=    0.500       N(1)  =     2000
   RHO(2)=  100.500       N(2)  =     4000

 VTST: version 3.1, (03/28/14)

 CHAIN: initializing optimizer
 
 OPT: Using VASP Dynamics algorithm
 CHAIN: Read ICHAIN            0
 
 POSCAR: P    Ru   C    O                        
  positions in direct lattice
  velocities in cartesian coordinates
 


--------------------------------------------------------------------------------------------------------


 ion  position               nearest neighbor table
   1  0.068  0.209  0.043-  14 2.22   2 2.22   4 2.24
   2  0.194  0.320  0.043-   1 2.22   5 2.23  19 2.27
   3  0.191  0.038  0.146-   8 2.22   4 2.23  34 2.24
   4  0.067  0.152  0.149-   3 2.23  15 2.23   1 2.24
   5  0.311  0.198  0.038-   2 2.23   6 2.23   8 2.24
   6  0.442  0.302  0.024-  23 2.22   5 2.23   9 2.23
   7  0.441  0.038  0.146-   8 2.22  12 2.22  38 2.23
   8  0.316  0.151  0.146-   7 2.22   3 2.22   5 2.24
   9  0.572  0.196  0.037-  10 2.23   6 2.23  12 2.24
  10  0.690  0.317  0.040-  13 2.22   9 2.23  27 2.26
  11  0.691  0.038  0.146-  12 2.23  16 2.23  42 2.24
  12  0.566  0.151  0.145-   7 2.22  11 2.23   9 2.24
  13  0.816  0.207  0.042-  10 2.22  14 2.23  16 2.24
  14  0.941  0.319  0.041-   1 2.22  13 2.23  31 2.23
  15  0.941  0.039  0.148-  16 2.23   4 2.23  46 2.24
  16  0.816  0.151  0.148-  15 2.23  11 2.23  13 2.24
  17  0.066  0.538  0.033-  30 2.23  18 2.23  20 2.24
  18  0.190  0.652  0.031-  21 2.23  17 2.23  35 2.24
  19  0.195  0.384  0.148-  20 2.23  24 2.26   2 2.27
  20  0.067  0.492  0.141-  19 2.23  31 2.23  17 2.24
  21  0.317  0.541  0.027-  22 2.21  18 2.23  24 2.26
  22  0.441  0.654  0.025-  21 2.21  25 2.21  39 2.28
  23  0.441  0.359  0.129-  24 2.20  28 2.21   6 2.22
  24  0.332  0.485  0.133-  23 2.20  49 2.26  21 2.26  19 2.26  28 2.94
  25  0.564  0.540  0.029-  22 2.21  26 2.23  28 2.26
  26  0.691  0.651  0.032-  25 2.23  29 2.23  43 2.24
  27  0.688  0.379  0.146-  32 2.23  10 2.26  28 2.26
  28  0.553  0.484  0.135-  23 2.21  25 2.26  27 2.26  49 2.43  24 2.94
  29  0.815  0.537  0.034-  30 2.23  26 2.23  32 2.24
  30  0.940  0.651  0.034-  29 2.23  17 2.23  47 2.24
  31  0.941  0.378  0.146-  14 2.23  32 2.23  20 2.23
  32  0.815  0.490  0.142-  27 2.23  31 2.23  29 2.24
  33  0.065  0.872  0.039-  34 2.22  46 2.22  36 2.24
  34  0.189  0.986  0.039-  33 2.22  37 2.22   3 2.24
  35  0.192  0.699  0.139-  40 2.22  36 2.23  18 2.24
  36  0.066  0.812  0.144-  47 2.22  35 2.23  33 2.24
  37  0.315  0.874  0.038-  34 2.22  38 2.22  40 2.24
  38  0.441  0.986  0.040-  41 2.22  37 2.22   7 2.23
  39  0.438  0.701  0.135-  40 2.22  44 2.23  49 2.26  22 2.28
  40  0.314  0.814  0.143-  35 2.22  39 2.22  37 2.24
  41  0.565  0.873  0.040-  42 2.22  38 2.22  44 2.25
  42  0.691  0.984  0.040-  45 2.22  41 2.22  11 2.24
  43  0.690  0.699  0.140-  44 2.22  48 2.23  26 2.24
  44  0.565  0.811  0.145-  43 2.22  39 2.23  41 2.25
  45  0.816  0.872  0.039-  42 2.22  46 2.22  48 2.24
  46  0.941  0.986  0.041-  33 2.22  45 2.22  15 2.24
  47  0.940  0.700  0.141-  36 2.22  48 2.22  30 2.24
  48  0.815  0.812  0.144-  47 2.22  43 2.23  45 2.24
  49  0.431  0.568  0.207-  50 1.98  52 2.07  51 2.25  24 2.26  39 2.26  28 2.43
  50  0.347  0.628  0.279-  53 1.19  51 1.59  49 1.98
  51  0.442  0.583  0.318-  52 1.47  50 1.59  49 2.25
  52  0.438  0.479  0.291-  51 1.47  49 2.07
  53  0.286  0.681  0.305-  50 1.19
 

IMPORTANT INFORMATION: All symmetrisations will be switched off!
NOSYMM: (Re-)initialisation of all symmetry stuff for point group C_1.

 
 
 KPOINTS: Automatic_mesh                          

Automatic generation of k-mesh.
Space group operators:
 irot       det(A)        alpha          n_x          n_y          n_z        tau_x        tau_y        tau_z
    1     1.000000     0.000000     1.000000     0.000000     0.000000     0.000000     0.000000     0.000000
 
 Subroutine IBZKPT returns following result:
 ===========================================
 
 Found      1 irreducible k-points:
 
 Following reciprocal coordinates:
            Coordinates               Weight
  0.000000  0.000000  0.000000      1.000000
 
 Following cartesian coordinates:
            Coordinates               Weight
  0.000000  0.000000  0.000000      1.000000
 
 
 Subroutine IBZKPT_HF returns following result:
 ==============================================
 
 Found      1 k-points in 1st BZ
 the following      1 k-points will be used (e.g. in the exchange kernel)
 Following reciprocal coordinates:   # in IRBZ
  0.000000  0.000000  0.000000       1 t-inv F


--------------------------------------------------------------------------------------------------------




 Dimension of arrays:
   k-points           NKPTS =      1   k-points in BZ     NKDIM =      1   number of bands    NBANDS=    189
   number of dos      NEDOS =    301   number of ions     NIONS =     53
   non local maximal  LDIM  =      6   non local SUM 2l+1 LMDIM =     18
   total plane-waves  NPLWV = ******
   max r-space proj   IRMAX =   6550   max aug-charges    IRDMAX= 219579
   dimension x,y,z NGX =    98 NGY =   96 NGZ =  150
   dimension x,y,z NGXF=   196 NGYF=  192 NGZF=  300
   support grid    NGXF=   392 NGYF=  384 NGZF=  600
   ions per type =              48   1   1   3
 NGX,Y,Z   is equivalent  to a cutoff of  12.29, 12.16, 12.47 a.u.
 NGXF,Y,Z  is equivalent  to a cutoff of  24.58, 24.31, 24.94 a.u.


 I would recommend the setting:
   dimension x,y,z NGX =    97 NGY =   96 NGZ =  146
 SYSTEM =  TS1_1-2                                 
 POSCAR =  P    Ru   C    O                        

 Startparameter for this run:
   NWRITE =      2    write-flag & timer
   PREC   = accura    normal or accurate (medium, high low for compatibility)
   ISTART =      1    job   : 0-new  1-cont  2-samecut
   ICHARG =      1    charge: 1-file 2-atom 10-const
   ISPIN  =      2    spin polarized calculation?
   LNONCOLLINEAR =      F non collinear calculations
   LSORBIT =      F    spin-orbit coupling
   INIWAV =      1    electr: 0-lowe 1-rand  2-diag
   LASPH  =      F    aspherical Exc in radial PAW
   METAGGA=      F    non-selfconsistent MetaGGA calc.

 Electronic Relaxation 1
   ENCUT  =  500.0 eV  36.75 Ry    6.06 a.u.  24.17 23.94 36.46*2*pi/ulx,y,z
   ENINI  =  500.0     initial cutoff
   ENAUG  =  644.9 eV  augmentation charge cutoff
   NELM   =    800;   NELMIN=  6; NELMDL=-20     # of ELM steps 
   EDIFF  = 0.1E-05   stopping-criterion for ELM
   LREAL  =      T    real-space projection
   NLSPLINE    = F    spline interpolate recip. space projectors
   LCOMPAT=      F    compatible to vasp.4.4
   GGA_COMPAT  = T    GGA compatible to vasp.4.4-vasp.4.6
   LMAXPAW     = -100 max onsite density
   LMAXMIX     =    2 max onsite mixed and CHGCAR
   VOSKOWN=      0    Vosko Wilk Nusair interpolation
   ROPT   =   -0.00025  -0.00025  -0.00025  -0.00025
 Ionic relaxation
   EDIFFG = -.3E-01   stopping-criterion for IOM
   NSW    =    673    number of steps for IOM
   NBLOCK =      1;   KBLOCK =      1    inner block; outer block 
   IBRION =      5    ionic relax: 0-MD 1-quasi-New 2-CG
   NFREE  =      2    steps in history (QN), initial steepest desc. (CG)
   ISIF   =      2    stress and relaxation
   IWAVPR =     11    prediction:  0-non 1-charg 2-wave 3-comb
   ISYM   =      0    0-nonsym 1-usesym 2-fastsym
   LCORR  =      T    Harris-Foulkes like correction to forces

   POTIM  = 0.0200    time-step for ionic-motion
   TEIN   =    0.0    initial temperature
   TEBEG  =    0.0;   TEEND  =   0.0 temperature during run
   SMASS  =  -3.00    Nose mass-parameter (am)
   estimated Nose-frequenzy (Omega)   =  0.10E-29 period in steps =****** mass=  -0.401E-26a.u.
   SCALEE = 1.0000    scale energy and forces
   NPACO  =    256;   APACO  = 16.0  distance and # of slots for P.C.
   PSTRESS=    0.0 pullay stress

  Mass of Ions in am
   POMASS =  30.97101.07 12.01 16.00
  Ionic Valenz
   ZVAL   =   5.00  8.00  4.00  6.00
  Atomic Wigner-Seitz radii
   RWIGS  =  -1.00 -1.00 -1.00 -1.00
  virtual crystal weights 
   VCA    =   1.00  1.00  1.00  1.00
   NELECT =     270.0000    total number of electrons
   NUPDOWN=      -1.0000    fix difference up-down

 DOS related values:
   EMIN   =  10.00;   EMAX   =-10.00  energy-range for DOS
   EFERMI =   0.00
   ISMEAR =     0;   SIGMA  =   0.05  broadening in eV -4-tet -1-fermi 0-gaus

 Electronic relaxation 2 (details)
   IALGO  =     48    algorithm
   LDIAG  =      T    sub-space diagonalisation (order eigenvalues)
   LSUBROT=      F    optimize rotation matrix (better conditioning)
   TURBO    =      0    0=normal 1=particle mesh
   IRESTART =      0    0=no restart 2=restart with 2 vectors
   NREBOOT  =      0    no. of reboots
   NMIN     =      0    reboot dimension
   EREF     =   0.00    reference energy to select bands
   IMIX   =      4    mixing-type and parameters
     AMIX     =   0.20;   BMIX     =  0.00
     AMIX_MAG =   0.80;   BMIX_MAG =  0.00
     AMIN     =   0.10
     WC   =   100.;   INIMIX=   1;  MIXPRE=   1;  MAXMIX= -45

 Intra band minimization:
   WEIMIN = 0.0010     energy-eigenvalue tresh-hold
   EBREAK =  0.13E-08  absolut break condition
   DEPER  =   0.30     relativ break condition  

   TIME   =   0.40     timestep for ELM

  volume/ion in A,a.u.               =      65.67       443.14
  Fermi-wavevector in a.u.,A,eV,Ry     =   0.698216  1.319437  6.632921  0.487506
  Thomas-Fermi vector in A             =   1.781759
 
 Write flags
   LWAVE  =      T    write WAVECAR
   LCHARG =      T    write CHGCAR
   LVTOT  =      F    write LOCPOT, total local potential
   LVHAR  =      F    write LOCPOT, Hartree potential only
   LELF   =      F    write electronic localiz. function (ELF)
   LORBIT =      0    0 simple, 1 ext, 2 COOP (PROOUT)


 Dipole corrections
   LMONO  =      F    monopole corrections only (constant potential shift)
   LDIPOL =      F    correct potential (dipole corrections)
   IDIPOL =      3    1-x, 2-y, 3-z, 4-all directions 
   EPSILON=  1.0000000 bulk dielectric constant

 Exchange correlation treatment:
   GGA     =    PE    GGA type
   LEXCH   =     8    internal setting for exchange type
   VOSKOWN=      0    Vosko Wilk Nusair interpolation
   LHFCALC =     F    Hartree Fock is set to
   LHFONE  =     F    Hartree Fock one center treatment
   AEXX    =    0.0000 exact exchange contribution

 Linear response parameters
   LEPSILON=     F    determine dielectric tensor
   LRPA    =     F    only Hartree local field effects (RPA)
   LNABLA  =     F    use nabla operator in PAW spheres
   LVEL    =     F    velocity operator in full k-point grid
   LINTERFAST=   F  fast interpolation
   KINTER  =     0    interpolate to denser k-point grid
   CSHIFT  =0.1000    complex shift for real part using Kramers Kronig
   OMEGAMAX=  -1.0    maximum frequency
   DEG_THRESHOLD= 0.2000000E-02 threshold for treating states as degnerate
   RTIME   =    0.100 relaxation time in fs

 Orbital magnetization related:
   ORBITALMAG=     F  switch on orbital magnetization
   LCHIMAG   =     F  perturbation theory with respect to B field
   DQ        =  0.001000  dq finite difference perturbation B field



--------------------------------------------------------------------------------------------------------


 finite differences
   using selective dynamics as specified on POSCAR
 charge density and potential will be updated during run
 spin polarized calculation
 RMM-DIIS sequential band-by-band
 perform sub-space diagonalisation
    before iterative eigenvector-optimisation
 modified Broyden-mixing scheme, WC =      100.0
 initial mixing is a Kerker type mixing with AMIX =  0.2000 and BMIX =      0.0000
 Hartree-type preconditioning will be used
 using additional bands           54
 real space projection scheme for non local part
 use partial core corrections
 calculate Harris-corrections to forces 
   (improved forces if not selfconsistent)
 use gradient corrections 
 use of overlap-Matrix (Vanderbilt PP)
 Gauss-broadening in eV      SIGMA  =   0.05


--------------------------------------------------------------------------------------------------------


  energy-cutoff  :      500.00
  volume of cell :     3480.31
      direct lattice vectors                 reciprocal lattice vectors
    13.254400253  0.000000000  0.000000000     0.075446643  0.000000000  0.000000000
     0.000000000 13.128899574  0.000000000     0.000000000  0.076167846  0.000000000
     0.000000000  0.000000000 20.000000000     0.000000000  0.000000000  0.050000000

  length of vectors
    13.254400253 13.128899574 20.000000000     0.075446643  0.076167846  0.050000000


 
 old parameters found on file WAVECAR:
  energy-cutoff  :      500.00
  volume of cell :     3480.31
      direct lattice vectors                 reciprocal lattice vectors
    13.254400253  0.000000000  0.000000000     0.075446643  0.000000000  0.000000000
     0.000000000 13.128899574  0.000000000     0.000000000  0.076167846  0.000000000
     0.000000000  0.000000000 20.000000000     0.000000000  0.000000000  0.050000000

  length of vectors

 
 k-points in units of 2pi/SCALE and weight: Automatic_mesh                          
   0.00000000  0.00000000  0.00000000       1.000
 
 k-points in reciprocal lattice and weights: Automatic_mesh                          
   0.00000000  0.00000000  0.00000000       1.000
 
 position of ions in fractional coordinates (direct lattice) 
   0.06814968  0.20884121  0.04340500
   0.19444150  0.31998867  0.04279319
   0.19117652  0.03778587  0.14613066
   0.06687114  0.15164263  0.14878858
   0.31073939  0.19793023  0.03788168
   0.44187580  0.30224125  0.02428959
   0.44091784  0.03765772  0.14604772
   0.31633189  0.15068872  0.14561152
   0.57189845  0.19615850  0.03689067
   0.68959713  0.31739026  0.04045329
   0.69080000  0.03780310  0.14637401
   0.56560409  0.15068491  0.14492893
   0.81599435  0.20660447  0.04246314
   0.94136542  0.31930885  0.04109419
   0.94117488  0.03898378  0.14770046
   0.81550560  0.15147068  0.14826558
   0.06612115  0.53772780  0.03339504
   0.19030978  0.65233619  0.03105217
   0.19534427  0.38379603  0.14841870
   0.06656714  0.49211964  0.14132027
   0.31716979  0.54149390  0.02650716
   0.44093479  0.65373667  0.02488359
   0.44107164  0.35893964  0.12859752
   0.33155585  0.48505898  0.13285997
   0.56403542  0.54011962  0.02895920
   0.69085319  0.65105738  0.03217764
   0.68779101  0.37926937  0.14584370
   0.55312339  0.48350731  0.13528701
   0.81539009  0.53698416  0.03394578
   0.94035795  0.65053621  0.03393784
   0.94127165  0.37838576  0.14560147
   0.81466783  0.49015559  0.14157854
   0.06488281  0.87231978  0.03894049
   0.18900991  0.98566868  0.03942824
   0.19167264  0.69902945  0.13871566
   0.06617929  0.81152731  0.14362618
   0.31490815  0.87397231  0.03813946
   0.44087050  0.98559545  0.03974192
   0.43770764  0.70078927  0.13453247
   0.31414240  0.81449788  0.14325138
   0.56548306  0.87256905  0.03966579
   0.69129882  0.98420095  0.04011642
   0.68971576  0.69870493  0.13950099
   0.56496385  0.81137685  0.14478713
   0.81643027  0.87198982  0.03935306
   0.94074441  0.98568113  0.04121787
   0.94049786  0.69981636  0.14109034
   0.81493057  0.81172275  0.14403458
   0.43083338  0.56841897  0.20659361
   0.34740587  0.62829019  0.27894895
   0.44173159  0.58277528  0.31830213
   0.43786799  0.47869093  0.29132254
   0.28607836  0.68076403  0.30503467
 
 position of ions in cartesian coordinates  (Angst):
   0.90328308  2.74185525  0.86809991
   2.57720548  4.20109914  0.85586377
   2.53393009  0.49608691  2.92261310
   0.88633683  1.99090088  2.97577157
   4.11866428  2.59860608  0.75763355
   5.85679871  3.96809497  0.48579188
   5.84410159  0.49440436  2.92095439
   4.19278955  1.97837713  2.91223036
   7.58017097  2.57534526  0.73781347
   9.14019640  4.16698489  0.80906586
   9.15613969  0.49631305  2.92748010
   7.49674299  1.97832709  2.89857866
  10.81551571  2.71248935  0.84926283
  12.47723407  4.19217377  0.82188381
  12.47470863  0.51181409  2.95400925
  10.80903761  1.98864331  2.96531163
   0.87639622  7.05977427  0.66790090
   2.52244199  8.56445628  0.62104339
   2.58917114  5.03881953  2.96837409
   0.88230745  6.46098936  2.82640535
   4.20389531  7.10921902  0.53014322
   5.84432616  8.58284306  0.49767189
   5.84614011  4.71248247  2.57195034
   4.39457392  6.36829068  2.65719941
   7.47595117  7.09117627  0.57918401
   9.15684470  8.54766700  0.64355272
   9.11625734  4.97938952  2.91687394
   7.33131886  6.34791888  2.70574013
  10.80750666  7.05001115  0.67891550
  12.46388063  8.54082464  0.67875681
  12.47599121  4.96778861  2.91202942
  10.79793351  6.43520346  2.83157083
   0.85998274 11.45259883  0.77880973
   2.50521305 12.94074506  0.78856473
   2.54050594  9.17748740  2.77431323
   0.87716676 10.65446051  2.87252351
   4.17391862 11.47429467  0.76278924
   5.84347401 12.93978362  0.79483846
   5.80155220  9.20059201  2.69064944
   4.16376908 10.69346081  2.86502761
   7.49513887 11.45587147  0.79331583
   9.16275124 12.92147539  0.80232834
   9.14176871  9.17322680  2.79001975
   7.48825698 10.65248518  2.89574266
  10.82129362 11.44826682  0.78706122
  12.46900289 12.94090860  0.82435731
  12.46573501  9.18781873  2.82180675
  10.80141592 10.65702650  2.88069165
   5.71043802  7.46271560  4.13187217
   4.60465640  8.24875879  5.57897891
   5.85488735  7.65119816  6.36604259
   5.80367758  6.28468516  5.82645080
   3.79179703  8.93768263  6.10069344
 


--------------------------------------------------------------------------------------------------------


 use parallel FFT for wavefunctions z direction half grid
 k-point  1 :   0.0000 0.0000 0.0000  plane waves:   44146

 maximum and minimum number of plane-waves per node :       927      908

 maximum number of plane-waves:     44146
 maximum index in each direction: 
   IXMAX=   24   IYMAX=   23   IZMAX=   36
   IXMIN=  -24   IYMIN=  -23   IZMIN=    0

 NGX is ok and might be reduce to  98
 NGY is ok and might be reduce to  94
 NGZ is ok and might be reduce to 146

 real space projection operators:
  total allocation   :       9853.36 KBytes
  max/ min on nodes  :        320.75        160.12


 parallel 3D FFT for wavefunctions:
    minimum data exchange during FFTs selected (reduces bandwidth)
 parallel 3D FFT for charge:
    minimum data exchange during FFTs selected (reduces bandwidth)


 total amount of memory used by VASP on root node   105679. kBytes
========================================================================

   base      :      30000. kBytes
   nonlr-proj:        391. kBytes
   fftplans  :      38318. kBytes
   grid      :      31266. kBytes
   one-center:         31. kBytes
   wavefun   :       5673. kBytes
 
     INWAV:  cpu time    1.15: real time    1.20
 Broyden mixing: mesh for mixing (old mesh)
   NGX = 49   NGY = 47   NGZ = 73
  (NGX  =196   NGY  =192   NGZ  =300)
  gives a total of 168119 points

 initial charge density was supplied:
 number of electron     269.9999999 magnetization      -0.0000000
 keeping initial charge density in first step


--------------------------------------------------------------------------------------------------------


 Maximum index for non-local projection operator          335
 Maximum index for augmentation-charges         4996 (set IRDMAX)


--------------------------------------------------------------------------------------------------------


 First call to EWALD:  gamma=   0.117
 Maximum number of real-space cells 3x 3x 2
 Maximum number of reciprocal cells 2x 2x 3

 FEWALD executed in parallel
    FEWALD:  cpu time    0.00: real time    0.01


----------------------------------------- Iteration    1(   1)  ---------------------------------------


    POTLOK:  cpu time    0.67: real time    0.69
    SETDIJ:  cpu time    0.77: real time    0.80
    EDDIAG:  cpu time    1.05: real time    1.37
  RMM-DIIS:  cpu time    2.40: real time    2.42
    ORTHCH:  cpu time    0.03: real time    0.03
       DOS:  cpu time    0.00: real time    0.01
    --------------------------------------------
      LOOP:  cpu time    4.92: real time    5.85

 eigenvalue-minimisations  :   378
 total energy-change (2. order) :-0.2904584E+03  (-0.2266560E+00)
 number of electron     269.9999999 magnetization      -0.0000000
 augmentation part      269.9999999 magnetization      -0.0000000

 Free energy of the ion-electron system (eV)
  ---------------------------------------------------
  alpha Z        PSCENC =        89.84601993
  Ewald energy   TEWEN  =     26212.20268857
  -Hartree energ DENC   =    -35323.62596598
  -exchange      EXHF   =         0.00000000
  -V(xc)+E(xc)   XCENC  =       238.28699021
  PAW double counting   =      3964.93236454    -3537.24573244
  entropy T*S    EENTRO =        -0.00000000
  eigenvalues    EBANDS =     -2284.07343722
  atomic energy  EATOM  =     10349.21864788
  ---------------------------------------------------
  free energy    TOTEN  =      -290.45842450 eV

  energy without entropy =     -290.45842450  energy(sigma->0) =     -290.45842450


--------------------------------------------------------------------------------------------------------




----------------------------------------- Iteration    1(   2)  ---------------------------------------


    EDDIAG:  cpu time    0.93: real time    0.93
  RMM-DIIS:  cpu time    2.38: real time    2.38
    ORTHCH:  cpu time    0.03: real time    0.03
       DOS:  cpu time    0.00: real time    0.00
    --------------------------------------------
      LOOP:  cpu time    3.34: real time    3.37

 eigenvalue-minimisations  :   378
 total energy-change (2. order) :-0.4438256E-02  (-0.1113243E-01)
 number of electron     269.9999999 magnetization      -0.0000000
 augmentation part      269.9999999 magnetization      -0.0000000

 Free energy of the ion-electron system (eV)
  ---------------------------------------------------
  alpha Z        PSCENC =        89.84601993
  Ewald energy   TEWEN  =     26212.20268857
  -Hartree energ DENC   =    -35323.62596598
  -exchange      EXHF   =         0.00000000
  -V(xc)+E(xc)   XCENC  =       238.28699021
  PAW double counting   =      3964.93236454    -3537.24573244
  entropy T*S    EENTRO =        -0.00000000
  eigenvalues    EBANDS =     -2284.07787548
  atomic energy  EATOM  =     10349.21864788
  ---------------------------------------------------
  free energy    TOTEN  =      -290.46286276 eV

  energy without entropy =     -290.46286276  energy(sigma->0) =     -290.46286276


--------------------------------------------------------------------------------------------------------




----------------------------------------- Iteration    1(   3)  ---------------------------------------


    EDDIAG:  cpu time    0.93: real time    0.93
  RMM-DIIS:  cpu time    2.37: real time    2.38
    ORTHCH:  cpu time    0.02: real time    0.03
       DOS:  cpu time    0.00: real time    0.00
    --------------------------------------------
      LOOP:  cpu time    3.33: real time    3.35

 eigenvalue-minimisations  :   378
 total energy-change (2. order) :-0.1562835E-02  (-0.1556013E-02)
 number of electron     269.9999999 magnetization      -0.0000000
 augmentation part      269.9999999 magnetization      -0.0000000

 Free energy of the ion-electron system (eV)
  ---------------------------------------------------
  alpha Z        PSCENC =        89.84601993
  Ewald energy   TEWEN  =     26212.20268857
  -Hartree energ DENC   =    -35323.62596598
  -exchange      EXHF   =         0.00000000
  -V(xc)+E(xc)   XCENC  =       238.28699021
  PAW double counting   =      3964.93236454    -3537.24573244
  entropy T*S    EENTRO =        -0.00000000
  eigenvalues    EBANDS =     -2284.07943831
  atomic energy  EATOM  =     10349.21864788
  ---------------------------------------------------
  free energy    TOTEN  =      -290.46442559 eV

  energy without entropy =     -290.46442559  energy(sigma->0) =     -290.46442559


--------------------------------------------------------------------------------------------------------




----------------------------------------- Iteration    1(   4)  ---------------------------------------


    EDDIAG:  cpu time    0.93: real time    0.93
  RMM-DIIS:  cpu time    2.37: real time    2.38
    ORTHCH:  cpu time    0.03: real time    0.03
       DOS:  cpu time    0.00: real time    0.00
    --------------------------------------------
      LOOP:  cpu time    3.33: real time    3.35

 eigenvalue-minimisations  :   378
 total energy-change (2. order) :-0.4829184E-03  (-0.4792218E-03)
 number of electron     269.9999999 magnetization      -0.0000000
 augmentation part      269.9999999 magnetization      -0.0000000

 Free energy of the ion-electron system (eV)
  ---------------------------------------------------
  alpha Z        PSCENC =        89.84601993
  Ewald energy   TEWEN  =     26212.20268857
  -Hartree energ DENC   =    -35323.62596598
  -exchange      EXHF   =         0.00000000
  -V(xc)+E(xc)   XCENC  =       238.28699021
  PAW double counting   =      3964.93236454    -3537.24573244
  entropy T*S    EENTRO =        -0.00000000
  eigenvalues    EBANDS =     -2284.07992123
  atomic energy  EATOM  =     10349.21864788
  ---------------------------------------------------
  free energy    TOTEN  =      -290.46490851 eV

  energy without entropy =     -290.46490851  energy(sigma->0) =     -290.46490851


--------------------------------------------------------------------------------------------------------




----------------------------------------- Iteration    1(   5)  ---------------------------------------


    EDDIAG:  cpu time    0.93: real time    0.93
  RMM-DIIS:  cpu time    2.38: real time    2.39
    ORTHCH:  cpu time    0.02: real time    0.03
       DOS:  cpu time    0.00: real time    0.00
    --------------------------------------------
      LOOP:  cpu time    3.34: real time    3.36

 eigenvalue-minimisations  :   378
 total energy-change (2. order) :-0.1896444E-03  (-0.1879141E-03)
 number of electron     269.9999999 magnetization      -0.0000000
 augmentation part      269.9999999 magnetization      -0.0000000

 Free energy of the ion-electron system (eV)
  ---------------------------------------------------
  alpha Z        PSCENC =        89.84601993
  Ewald energy   TEWEN  =     26212.20268857
  -Hartree energ DENC   =    -35323.62596598
  -exchange      EXHF   =         0.00000000
  -V(xc)+E(xc)   XCENC  =       238.28699021
  PAW double counting   =      3964.93236454    -3537.24573244
  entropy T*S    EENTRO =        -0.00000000
  eigenvalues    EBANDS =     -2284.08011088
  atomic energy  EATOM  =     10349.21864788
  ---------------------------------------------------
  free energy    TOTEN  =      -290.46509816 eV

  energy without entropy =     -290.46509816  energy(sigma->0) =     -290.46509816


--------------------------------------------------------------------------------------------------------




----------------------------------------- Iteration    1(   6)  ---------------------------------------


    EDDIAG:  cpu time    0.93: real time    0.93
  RMM-DIIS:  cpu time    2.38: real time    2.39
    ORTHCH:  cpu time    0.03: real time    0.03
       DOS:  cpu time    0.00: real time    0.00
    --------------------------------------------
      LOOP:  cpu time    3.34: real time    3.35

 eigenvalue-minimisations  :   378
 total energy-change (2. order) :-0.8781372E-04  (-0.8589525E-04)
 number of electron     269.9999999 magnetization      -0.0000000
 augmentation part      269.9999999 magnetization      -0.0000000

 Free energy of the ion-electron system (eV)
  ---------------------------------------------------
  alpha Z        PSCENC =        89.84601993
  Ewald energy   TEWEN  =     26212.20268857
  -Hartree energ DENC   =    -35323.62596598
  -exchange      EXHF   =         0.00000000
  -V(xc)+E(xc)   XCENC  =       238.28699021
  PAW double counting   =      3964.93236454    -3537.24573244
  entropy T*S    EENTRO =        -0.00000000
  eigenvalues    EBANDS =     -2284.08019869
  atomic energy  EATOM  =     10349.21864788
  ---------------------------------------------------
  free energy    TOTEN  =      -290.46518597 eV

  energy without entropy =     -290.46518597  energy(sigma->0) =     -290.46518597


--------------------------------------------------------------------------------------------------------




----------------------------------------- Iteration    1(   7)  ---------------------------------------


    EDDIAG:  cpu time    0.93: real time    0.93
  RMM-DIIS:  cpu time    2.38: real time    2.38
    ORTHCH:  cpu time    0.03: real time    0.03
       DOS:  cpu time    0.00: real time    0.00
    --------------------------------------------
      LOOP:  cpu time    3.34: real time    3.36

 eigenvalue-minimisations  :   378
 total energy-change (2. order) :-0.4311563E-04  (-0.4236054E-04)
 number of electron     269.9999999 magnetization      -0.0000000
 augmentation part      269.9999999 magnetization      -0.0000000

 Free energy of the ion-electron system (eV)
  ---------------------------------------------------
  alpha Z        PSCENC =        89.84601993
  Ewald energy   TEWEN  =     26212.20268857
  -Hartree energ DENC   =    -35323.62596598
  -exchange      EXHF   =         0.00000000
  -V(xc)+E(xc)   XCENC  =       238.28699021
  PAW double counting   =      3964.93236454    -3537.24573244
  entropy T*S    EENTRO =        -0.00000000
  eigenvalues    EBANDS =     -2284.08024181
  atomic energy  EATOM  =     10349.21864788
  ---------------------------------------------------
  free energy    TOTEN  =      -290.46522909 eV

  energy without entropy =     -290.46522909  energy(sigma->0) =     -290.46522909


--------------------------------------------------------------------------------------------------------




----------------------------------------- Iteration    1(   8)  ---------------------------------------


    EDDIAG:  cpu time    0.93: real time    0.93
  RMM-DIIS:  cpu time    2.37: real time    2.38
    ORTHCH:  cpu time    0.03: real time    0.03
       DOS:  cpu time    0.00: real time    0.00
    --------------------------------------------
      LOOP:  cpu time    3.33: real time    3.35

 eigenvalue-minimisations  :   376
 total energy-change (2. order) :-0.2301553E-04  (-0.2239562E-04)
 number of electron     269.9999999 magnetization      -0.0000000
 augmentation part      269.9999999 magnetization      -0.0000000

 Free energy of the ion-electron system (eV)
  ---------------------------------------------------
  alpha Z        PSCENC =        89.84601993
  Ewald energy   TEWEN  =     26212.20268857
  -Hartree energ DENC   =    -35323.62596598
  -exchange      EXHF   =         0.00000000
  -V(xc)+E(xc)   XCENC  =       238.28699021
  PAW double counting   =      3964.93236454    -3537.24573244
  entropy T*S    EENTRO =        -0.00000000
  eigenvalues    EBANDS =     -2284.08026482
  atomic energy  EATOM  =     10349.21864788
  ---------------------------------------------------
  free energy    TOTEN  =      -290.46525210 eV

  energy without entropy =     -290.46525210  energy(sigma->0) =     -290.46525210


--------------------------------------------------------------------------------------------------------




----------------------------------------- Iteration    1(   9)  ---------------------------------------


    EDDIAG:  cpu time    0.93: real time    0.93
  RMM-DIIS:  cpu time    2.37: real time    2.37
    ORTHCH:  cpu time    0.03: real time    0.03
       DOS:  cpu time    0.00: real time    0.00
    --------------------------------------------
      LOOP:  cpu time    3.32: real time    4.22

 eigenvalue-minimisations  :   374
 total energy-change (2. order) :-0.1232033E-04  (-0.1209802E-04)
 number of electron     269.9999999 magnetization      -0.0000000
 augmentation part      269.9999999 magnetization      -0.0000000

 Free energy of the ion-electron system (eV)
  ---------------------------------------------------
  alpha Z        PSCENC =        89.84601993
  Ewald energy   TEWEN  =     26212.20268857
  -Hartree energ DENC   =    -35323.62596598
  -exchange      EXHF   =         0.00000000
  -V(xc)+E(xc)   XCENC  =       238.28699021
  PAW double counting   =      3964.93236454    -3537.24573244
  entropy T*S    EENTRO =        -0.00000000
  eigenvalues    EBANDS =     -2284.08027714
  atomic energy  EATOM  =     10349.21864788
  ---------------------------------------------------
  free energy    TOTEN  =      -290.46526442 eV

  energy without entropy =     -290.46526442  energy(sigma->0) =     -290.46526442


--------------------------------------------------------------------------------------------------------




----------------------------------------- Iteration    1(  10)  ---------------------------------------


    EDDIAG:  cpu time    0.93: real time    0.93
  RMM-DIIS:  cpu time    2.38: real time    2.39
    ORTHCH:  cpu time    0.03: real time    0.03
       DOS:  cpu time    0.00: real time    0.00
    --------------------------------------------
      LOOP:  cpu time    3.33: real time    3.35

 eigenvalue-minimisations  :   372
 total energy-change (2. order) :-0.6874836E-05  (-0.6711638E-05)
 number of electron     269.9999999 magnetization      -0.0000000
 augmentation part      269.9999999 magnetization      -0.0000000

 Free energy of the ion-electron system (eV)
  ---------------------------------------------------
  alpha Z        PSCENC =        89.84601993
  Ewald energy   TEWEN  =     26212.20268857
  -Hartree energ DENC   =    -35323.62596598
  -exchange      EXHF   =         0.00000000
  -V(xc)+E(xc)   XCENC  =       238.28699021
  PAW double counting   =      3964.93236454    -3537.24573244
  entropy T*S    EENTRO =        -0.00000000
  eigenvalues    EBANDS =     -2284.08028402
  atomic energy  EATOM  =     10349.21864788
  ---------------------------------------------------
  free energy    TOTEN  =      -290.46527130 eV

  energy without entropy =     -290.46527130  energy(sigma->0) =     -290.46527130


--------------------------------------------------------------------------------------------------------




----------------------------------------- Iteration    1(  11)  ---------------------------------------


    EDDIAG:  cpu time    0.93: real time    0.93
  RMM-DIIS:  cpu time    2.33: real time    2.34
    ORTHCH:  cpu time    0.03: real time    0.03
       DOS:  cpu time    0.00: real time    0.00
    --------------------------------------------
      LOOP:  cpu time    3.29: real time    3.31

 eigenvalue-minimisations  :   360
 total energy-change (2. order) :-0.3812405E-05  (-0.3753830E-05)
 number of electron     269.9999999 magnetization      -0.0000000
 augmentation part      269.9999999 magnetization      -0.0000000

 Free energy of the ion-electron system (eV)
  ---------------------------------------------------
  alpha Z        PSCENC =        89.84601993
  Ewald energy   TEWEN  =     26212.20268857
  -Hartree energ DENC   =    -35323.62596598
  -exchange      EXHF   =         0.00000000
  -V(xc)+E(xc)   XCENC  =       238.28699021
  PAW double counting   =      3964.93236454    -3537.24573244
  entropy T*S    EENTRO =        -0.00000000
  eigenvalues    EBANDS =     -2284.08028783
  atomic energy  EATOM  =     10349.21864788
  ---------------------------------------------------
  free energy    TOTEN  =      -290.46527511 eV

  energy without entropy =     -290.46527511  energy(sigma->0) =     -290.46527511


--------------------------------------------------------------------------------------------------------




----------------------------------------- Iteration    1(  12)  ---------------------------------------


    EDDIAG:  cpu time    0.93: real time    0.93
  RMM-DIIS:  cpu time    2.29: real time    2.29
    ORTHCH:  cpu time    0.03: real time    0.03
       DOS:  cpu time    0.00: real time    0.00
    --------------------------------------------
      LOOP:  cpu time    3.24: real time    3.27

 eigenvalue-minimisations  :   346
 total energy-change (2. order) :-0.2183464E-05  (-0.2140644E-05)
 number of electron     269.9999999 magnetization      -0.0000000
 augmentation part      269.9999999 magnetization      -0.0000000

 Free energy of the ion-electron system (eV)
  ---------------------------------------------------
  alpha Z        PSCENC =        89.84601993
  Ewald energy   TEWEN  =     26212.20268857
  -Hartree energ DENC   =    -35323.62596598
  -exchange      EXHF   =         0.00000000
  -V(xc)+E(xc)   XCENC  =       238.28699021
  PAW double counting   =      3964.93236454    -3537.24573244
  entropy T*S    EENTRO =        -0.00000000
  eigenvalues    EBANDS =     -2284.08029001
  atomic energy  EATOM  =     10349.21864788
  ---------------------------------------------------
  free energy    TOTEN  =      -290.46527729 eV

  energy without entropy =     -290.46527729  energy(sigma->0) =     -290.46527729


--------------------------------------------------------------------------------------------------------




----------------------------------------- Iteration    1(  13)  ---------------------------------------


    EDDIAG:  cpu time    0.93: real time    0.93
  RMM-DIIS:  cpu time    2.25: real time    2.26
    ORTHCH:  cpu time    0.03: real time    0.03
       DOS:  cpu time    0.00: real time    0.00
    --------------------------------------------
      LOOP:  cpu time    3.21: real time    3.23

 eigenvalue-minimisations  :   334
 total energy-change (2. order) :-0.1241853E-05  (-0.1226316E-05)
 number of electron     269.9999999 magnetization      -0.0000000
 augmentation part      269.9999999 magnetization      -0.0000000

 Free energy of the ion-electron system (eV)
  ---------------------------------------------------
  alpha Z        PSCENC =        89.84601993
  Ewald energy   TEWEN  =     26212.20268857
  -Hartree energ DENC   =    -35323.62596598
  -exchange      EXHF   =         0.00000000
  -V(xc)+E(xc)   XCENC  =       238.28699021
  PAW double counting   =      3964.93236454    -3537.24573244
  entropy T*S    EENTRO =        -0.00000000
  eigenvalues    EBANDS =     -2284.08029125
  atomic energy  EATOM  =     10349.21864788
  ---------------------------------------------------
  free energy    TOTEN  =      -290.46527853 eV

  energy without entropy =     -290.46527853  energy(sigma->0) =     -290.46527853


--------------------------------------------------------------------------------------------------------




----------------------------------------- Iteration    1(  14)  ---------------------------------------


    EDDIAG:  cpu time    0.93: real time    0.93
  RMM-DIIS:  cpu time    2.24: real time    2.24
    ORTHCH:  cpu time    0.03: real time    0.03
       DOS:  cpu time    0.00: real time    0.00
    --------------------------------------------
      LOOP:  cpu time    3.20: real time    3.21

 eigenvalue-minimisations  :   325
 total energy-change (2. order) :-0.7255148E-06  (-0.7142736E-06)
 number of electron     269.9999999 magnetization      -0.0000000
 augmentation part      269.9999999 magnetization      -0.0000000

 Free energy of the ion-electron system (eV)
  ---------------------------------------------------
  alpha Z        PSCENC =        89.84601993
  Ewald energy   TEWEN  =     26212.20268857
  -Hartree energ DENC   =    -35323.62596598
  -exchange      EXHF   =         0.00000000
  -V(xc)+E(xc)   XCENC  =       238.28699021
  PAW double counting   =      3964.93236454    -3537.24573244
  entropy T*S    EENTRO =        -0.00000000
  eigenvalues    EBANDS =     -2284.08029198
  atomic energy  EATOM  =     10349.21864788
  ---------------------------------------------------
  free energy    TOTEN  =      -290.46527926 eV

  energy without entropy =     -290.46527926  energy(sigma->0) =     -290.46527926


--------------------------------------------------------------------------------------------------------




----------------------------------------- Iteration    1(  15)  ---------------------------------------


    EDDIAG:  cpu time    0.93: real time    0.93
  RMM-DIIS:  cpu time    3.11: real time    3.20
    ORTHCH:  cpu time    0.03: real time    0.03
       DOS:  cpu time    0.00: real time    0.00
    --------------------------------------------
      LOOP:  cpu time    4.06: real time    4.17

 eigenvalue-minimisations  :   507
 total energy-change (2. order) :-0.9965152E-06  (-0.9923555E-06)
 number of electron     269.9999999 magnetization      -0.0000000
 augmentation part      269.9999999 magnetization      -0.0000000

 Free energy of the ion-electron system (eV)
  ---------------------------------------------------
  alpha Z        PSCENC =        89.84601993
  Ewald energy   TEWEN  =     26212.20268857
  -Hartree energ DENC   =    -35323.62596598
  -exchange      EXHF   =         0.00000000
  -V(xc)+E(xc)   XCENC  =       238.28699021
  PAW double counting   =      3964.93236454    -3537.24573244
  entropy T*S    EENTRO =        -0.00000000
  eigenvalues    EBANDS =     -2284.08029298
  atomic energy  EATOM  =     10349.21864788
  ---------------------------------------------------
  free energy    TOTEN  =      -290.46528026 eV

  energy without entropy =     -290.46528026  energy(sigma->0) =     -290.46528026


--------------------------------------------------------------------------------------------------------




----------------------------------------- Iteration    1(  16)  ---------------------------------------


    EDDIAG:  cpu time    0.93: real time    0.93
  RMM-DIIS:  cpu time    2.61: real time    2.62
    ORTHCH:  cpu time    0.03: real time    0.03
       DOS:  cpu time    0.00: real time    0.00
    --------------------------------------------
      LOOP:  cpu time    3.58: real time    3.60

 eigenvalue-minimisations  :   400
 total energy-change (2. order) : 0.1949957E-08  (-0.5126190E-07)
 number of electron     269.9999999 magnetization      -0.0000000
 augmentation part      269.9999999 magnetization      -0.0000000

 Free energy of the ion-electron system (eV)
  ---------------------------------------------------
  alpha Z        PSCENC =        89.84601993
  Ewald energy   TEWEN  =     26212.20268857
  -Hartree energ DENC   =    -35323.62596598
  -exchange      EXHF   =         0.00000000
  -V(xc)+E(xc)   XCENC  =       238.28699021
  PAW double counting   =      3964.93236454    -3537.24573244
  entropy T*S    EENTRO =        -0.00000000
  eigenvalues    EBANDS =     -2284.08029297
  atomic energy  EATOM  =     10349.21864788
  ---------------------------------------------------
  free energy    TOTEN  =      -290.46528025 eV

  energy without entropy =     -290.46528025  energy(sigma->0) =     -290.46528025


--------------------------------------------------------------------------------------------------------




----------------------------------------- Iteration    1(  17)  ---------------------------------------


    EDDIAG:  cpu time    0.93: real time    0.93
  RMM-DIIS:  cpu time    2.43: real time    2.44
    ORTHCH:  cpu time    0.03: real time    0.03
       DOS:  cpu time    0.00: real time    0.00
    --------------------------------------------
      LOOP:  cpu time    3.39: real time    3.41

 eigenvalue-minimisations  :   350
 total energy-change (2. order) :-0.2294837E-07  (-0.2301390E-07)
 number of electron     269.9999999 magnetization      -0.0000000
 augmentation part      269.9999999 magnetization      -0.0000000

 Free energy of the ion-electron system (eV)
  ---------------------------------------------------
  alpha Z        PSCENC =        89.84601993
  Ewald energy   TEWEN  =     26212.20268857
  -Hartree energ DENC   =    -35323.62596598
  -exchange      EXHF   =         0.00000000
  -V(xc)+E(xc)   XCENC  =       238.28699021
  PAW double counting   =      3964.93236454    -3537.24573244
  entropy T*S    EENTRO =        -0.00000000
  eigenvalues    EBANDS =     -2284.08029300
  atomic energy  EATOM  =     10349.21864788
  ---------------------------------------------------
  free energy    TOTEN  =      -290.46528028 eV

  energy without entropy =     -290.46528028  energy(sigma->0) =     -290.46528028


--------------------------------------------------------------------------------------------------------




----------------------------------------- Iteration    1(  18)  ---------------------------------------


    EDDIAG:  cpu time    0.93: real time    0.93
  RMM-DIIS:  cpu time    2.36: real time    2.37
    ORTHCH:  cpu time    0.03: real time    0.03
       DOS:  cpu time    0.00: real time    0.00
    --------------------------------------------
      LOOP:  cpu time    3.31: real time    3.34

 eigenvalue-minimisations  :   327
 total energy-change (2. order) :-0.1235458E-07  (-0.1226274E-07)
 number of electron     269.9999999 magnetization      -0.0000000
 augmentation part      269.9999999 magnetization      -0.0000000

 Free energy of the ion-electron system (eV)
  ---------------------------------------------------
  alpha Z        PSCENC =        89.84601993
  Ewald energy   TEWEN  =     26212.20268857
  -Hartree energ DENC   =    -35323.62596598
  -exchange      EXHF   =         0.00000000
  -V(xc)+E(xc)   XCENC  =       238.28699021
  PAW double counting   =      3964.93236454    -3537.24573244
  entropy T*S    EENTRO =        -0.00000000
  eigenvalues    EBANDS =     -2284.08029301
  atomic energy  EATOM  =     10349.21864788
  ---------------------------------------------------
  free energy    TOTEN  =      -290.46528029 eV

  energy without entropy =     -290.46528029  energy(sigma->0) =     -290.46528029


--------------------------------------------------------------------------------------------------------




----------------------------------------- Iteration    1(  19)  ---------------------------------------


    EDDIAG:  cpu time    0.95: real time    0.95
  RMM-DIIS:  cpu time    2.23: real time    2.23
    ORTHCH:  cpu time    0.03: real time    0.03
       DOS:  cpu time    0.00: real time    0.00
    --------------------------------------------
      LOOP:  cpu time    3.20: real time    3.22

 eigenvalue-minimisations  :   290
 total energy-change (2. order) :-0.6555638E-08  (-0.6507961E-08)
 number of electron     269.9999999 magnetization      -0.0000000
 augmentation part      269.9999999 magnetization      -0.0000000

 Free energy of the ion-electron system (eV)
  ---------------------------------------------------
  alpha Z        PSCENC =        89.84601993
  Ewald energy   TEWEN  =     26212.20268857
  -Hartree energ DENC   =    -35323.62596598
  -exchange      EXHF   =         0.00000000
  -V(xc)+E(xc)   XCENC  =       238.28699021
  PAW double counting   =      3964.93236454    -3537.24573244
  entropy T*S    EENTRO =        -0.00000000
  eigenvalues    EBANDS =     -2284.08029302
  atomic energy  EATOM  =     10349.21864788
  ---------------------------------------------------
  free energy    TOTEN  =      -290.46528030 eV

  energy without entropy =     -290.46528030  energy(sigma->0) =     -290.46528030


--------------------------------------------------------------------------------------------------------




----------------------------------------- Iteration    1(  20)  ---------------------------------------


    EDDIAG:  cpu time    0.93: real time    0.93
  RMM-DIIS:  cpu time    2.11: real time    2.12
    ORTHCH:  cpu time    0.02: real time    0.03
       DOS:  cpu time    0.00: real time    0.00
    CHARGE:  cpu time    1.16: real time    1.20
    MIXING:  cpu time    0.02: real time    0.04
    --------------------------------------------
      LOOP:  cpu time    4.26: real time    4.33

 eigenvalue-minimisations  :   253
 total energy-change (2. order) :-0.3332389E-08  (-0.3304654E-08)
 number of electron     269.9999999 magnetization      -0.0000000
 augmentation part      -20.9875282 magnetization       0.0000006

 Broyden mixing:
  rms(total) = 0.22949E-01    rms(broyden)= 0.22791E-01
  rms(prec ) = 0.24170E-01
  weight for this iteration     100.00

 Free energy of the ion-electron system (eV)
  ---------------------------------------------------
  alpha Z        PSCENC =        89.84601993
  Ewald energy   TEWEN  =     26212.20268857
  -Hartree energ DENC   =    -35323.62596598
  -exchange      EXHF   =         0.00000000
  -V(xc)+E(xc)   XCENC  =       238.28699021
  PAW double counting   =      3964.93236454    -3537.24573244
  entropy T*S    EENTRO =        -0.00000000
  eigenvalues    EBANDS =     -2284.08029302
  atomic energy  EATOM  =     10349.21864788
  ---------------------------------------------------
  free energy    TOTEN  =      -290.46528030 eV

  energy without entropy =     -290.46528030  energy(sigma->0) =     -290.46528030


--------------------------------------------------------------------------------------------------------




----------------------------------------- Iteration    1(  21)  ---------------------------------------


    POTLOK:  cpu time    0.66: real time    0.67
    SETDIJ:  cpu time    0.77: real time    0.77
    EDDIAG:  cpu time    0.93: real time    0.93
  RMM-DIIS:  cpu time    4.15: real time    4.16
    ORTHCH:  cpu time    0.03: real time    0.03
       DOS:  cpu time    0.00: real time    0.00
    CHARGE:  cpu time    1.16: real time    1.16
    MIXING:  cpu time    0.02: real time    0.04
    --------------------------------------------
      LOOP:  cpu time    7.73: real time    8.09

 eigenvalue-minimisations  :   756
 total energy-change (2. order) : 0.3935758E-01  (-0.5070822E-03)
 number of electron     269.9999999 magnetization       0.0000000
 augmentation part      -20.9938148 magnetization       0.0000014

 Broyden mixing:
  rms(total) = 0.17159E-01    rms(broyden)= 0.17144E-01
  rms(prec ) = 0.18237E-01
  weight for this iteration     100.00

 eigenvalues of (default mixing * dielectric matrix)
  average eigenvalue GAMMA=   0.9987
  0.9987

 Free energy of the ion-electron system (eV)
  ---------------------------------------------------
  alpha Z        PSCENC =        89.84601993
  Ewald energy   TEWEN  =     26212.20268857
  -Hartree energ DENC   =    -35323.00547580
  -exchange      EXHF   =         0.00000000
  -V(xc)+E(xc)   XCENC  =       238.28659992
  PAW double counting   =      3964.59504292    -3536.95004795
  entropy T*S    EENTRO =        -0.00000000
  eigenvalues    EBANDS =     -2284.61939820
  atomic energy  EATOM  =     10349.21864788
  ---------------------------------------------------
  free energy    TOTEN  =      -290.42592272 eV

  energy without entropy =     -290.42592272  energy(sigma->0) =     -290.42592272


--------------------------------------------------------------------------------------------------------




----------------------------------------- Iteration    1(  22)  ---------------------------------------


    POTLOK:  cpu time    0.66: real time    0.67
    SETDIJ:  cpu time    0.77: real time    0.77
    EDDIAG:  cpu time    0.93: real time    0.93
  RMM-DIIS:  cpu time    4.18: real time    4.19
    ORTHCH:  cpu time    0.03: real time    0.03
       DOS:  cpu time    0.00: real time    0.00
    CHARGE:  cpu time    1.16: real time    1.17
    MIXING:  cpu time    0.01: real time    0.02
    --------------------------------------------
      LOOP:  cpu time    7.74: real time    7.79

 eigenvalue-minimisations  :   771
 total energy-change (2. order) : 0.3114460E-03  (-0.1087542E-03)
 number of electron     269.9999999 magnetization       0.0000000
 augmentation part      -20.9904230 magnetization      -0.0000032

 Broyden mixing:
  rms(total) = 0.12194E-01    rms(broyden)= 0.12193E-01
  rms(prec ) = 0.12707E-01
  weight for this iteration     100.00

 eigenvalues of (default mixing * dielectric matrix)
  average eigenvalue GAMMA=   1.9042
  0.7439  3.0644

 Free energy of the ion-electron system (eV)
  ---------------------------------------------------
  alpha Z        PSCENC =        89.84601993
  Ewald energy   TEWEN  =     26212.20268857
  -Hartree energ DENC   =    -35322.82108404
  -exchange      EXHF   =         0.00000000
  -V(xc)+E(xc)   XCENC  =       238.27534676
  PAW double counting   =      3964.02637035    -3536.37487148
  entropy T*S    EENTRO =        -0.00000000
  eigenvalues    EBANDS =     -2284.79872925
  atomic energy  EATOM  =     10349.21864788
  ---------------------------------------------------
  free energy    TOTEN  =      -290.42561127 eV

  energy without entropy =     -290.42561127  energy(sigma->0) =     -290.42561127


--------------------------------------------------------------------------------------------------------




----------------------------------------- Iteration    1(  23)  ---------------------------------------


    POTLOK:  cpu time    0.67: real time    0.67
    SETDIJ:  cpu time    0.77: real time    0.77
    EDDIAG:  cpu time    0.93: real time    0.93
  RMM-DIIS:  cpu time    4.09: real time    4.10
    ORTHCH:  cpu time    0.03: real time    0.03
       DOS:  cpu time    0.00: real time    0.00
    CHARGE:  cpu time    1.16: real time    1.16
    MIXING:  cpu time    0.01: real time    0.04
    --------------------------------------------
      LOOP:  cpu time    7.65: real time    7.71

 eigenvalue-minimisations  :   751
 total energy-change (2. order) : 0.8003726E-05  (-0.9194036E-04)
 number of electron     269.9999999 magnetization       0.0000000
 augmentation part      -20.9913360 magnetization       0.0000010

 Broyden mixing:
  rms(total) = 0.52407E-02    rms(broyden)= 0.52385E-02
  rms(prec ) = 0.56954E-02
  weight for this iteration     100.00

 eigenvalues of (default mixing * dielectric matrix)
  average eigenvalue GAMMA=   1.8173
  3.7717  0.8401  0.8401

 Free energy of the ion-electron system (eV)
  ---------------------------------------------------
  alpha Z        PSCENC =        89.84601993
  Ewald energy   TEWEN  =     26212.20268857
  -Hartree energ DENC   =    -35322.40456377
  -exchange      EXHF   =         0.00000000
  -V(xc)+E(xc)   XCENC  =       238.26064258
  PAW double counting   =      3963.00746758    -3535.35026821
  entropy T*S    EENTRO =        -0.00000000
  eigenvalues    EBANDS =     -2285.20623785
  atomic energy  EATOM  =     10349.21864788
  ---------------------------------------------------
  free energy    TOTEN  =      -290.42560327 eV

  energy without entropy =     -290.42560327  energy(sigma->0) =     -290.42560327


--------------------------------------------------------------------------------------------------------




----------------------------------------- Iteration    1(  24)  ---------------------------------------


    POTLOK:  cpu time    0.66: real time    0.67
    SETDIJ:  cpu time    0.77: real time    0.77
    EDDIAG:  cpu time    0.93: real time    0.93
  RMM-DIIS:  cpu time    3.92: real time    3.93
    ORTHCH:  cpu time    0.03: real time    0.03
       DOS:  cpu time    0.00: real time    0.00
    CHARGE:  cpu time    1.16: real time    1.16
    MIXING:  cpu time    0.02: real time    0.02
    --------------------------------------------
      LOOP:  cpu time    7.49: real time    7.65

 eigenvalue-minimisations  :   711
 total energy-change (2. order) :-0.9833873E-05  (-0.1559303E-04)
 number of electron     269.9999999 magnetization      -0.0000000
 augmentation part      -20.9889290 magnetization      -0.0000013

 Broyden mixing:
  rms(total) = 0.30279E-02    rms(broyden)= 0.30274E-02
  rms(prec ) = 0.34307E-02
  weight for this iteration     100.00

 eigenvalues of (default mixing * dielectric matrix)
  average eigenvalue GAMMA=   1.6815
  4.0851  1.1997  0.8633  0.5781

 Free energy of the ion-electron system (eV)
  ---------------------------------------------------
  alpha Z        PSCENC =        89.84601993
  Ewald energy   TEWEN  =     26212.20268857
  -Hartree energ DENC   =    -35322.21444702
  -exchange      EXHF   =         0.00000000
  -V(xc)+E(xc)   XCENC  =       238.25990319
  PAW double counting   =      3962.66902209    -3535.01045431
  entropy T*S    EENTRO =        -0.00000000
  eigenvalues    EBANDS =     -2285.39699344
  atomic energy  EATOM  =     10349.21864788
  ---------------------------------------------------
  free energy    TOTEN  =      -290.42561310 eV

  energy without entropy =     -290.42561310  energy(sigma->0) =     -290.42561310


--------------------------------------------------------------------------------------------------------




----------------------------------------- Iteration    1(  25)  ---------------------------------------


    POTLOK:  cpu time    0.67: real time    0.67
    SETDIJ:  cpu time    0.77: real time    0.77
    EDDIAG:  cpu time    0.93: real time    0.93
  RMM-DIIS:  cpu time    3.84: real time    3.85
    ORTHCH:  cpu time    0.02: real time    0.03
       DOS:  cpu time    0.00: real time    0.00
    CHARGE:  cpu time    1.16: real time    1.16
    MIXING:  cpu time    0.02: real time    0.02
    --------------------------------------------
      LOOP:  cpu time    7.41: real time    7.44

 eigenvalue-minimisations  :   699
 total energy-change (2. order) : 0.3320049E-05  (-0.4980783E-05)
 number of electron     269.9999999 magnetization      -0.0000000
 augmentation part      -20.9910730 magnetization      -0.0000009

 Broyden mixing:
  rms(total) = 0.16747E-02    rms(broyden)= 0.16735E-02
  rms(prec ) = 0.17876E-02
  weight for this iteration     100.00

 eigenvalues of (default mixing * dielectric matrix)
  average eigenvalue GAMMA=   1.7534
  4.0854  2.3368  0.8909  0.8909  0.5631

 Free energy of the ion-electron system (eV)
  ---------------------------------------------------
  alpha Z        PSCENC =        89.84601993
  Ewald energy   TEWEN  =     26212.20268857
  -Hartree energ DENC   =    -35322.25823413
  -exchange      EXHF   =         0.00000000
  -V(xc)+E(xc)   XCENC  =       238.26182018
  PAW double counting   =      3962.59497666    -3534.93642199
  entropy T*S    EENTRO =        -0.00000000
  eigenvalues    EBANDS =     -2285.35510689
  atomic energy  EATOM  =     10349.21864788
  ---------------------------------------------------
  free energy    TOTEN  =      -290.42560978 eV

  energy without entropy =     -290.42560978  energy(sigma->0) =     -290.42560978


--------------------------------------------------------------------------------------------------------




----------------------------------------- Iteration    1(  26)  ---------------------------------------


    POTLOK:  cpu time    0.67: real time    0.67
    SETDIJ:  cpu time    0.77: real time    0.77
    EDDIAG:  cpu time    0.93: real time    0.93
  RMM-DIIS:  cpu time    3.62: real time    3.63
    ORTHCH:  cpu time    0.03: real time    0.03
       DOS:  cpu time    0.00: real time    0.00
    CHARGE:  cpu time    1.16: real time    1.16
    MIXING:  cpu time    0.02: real time    0.02
    --------------------------------------------
      LOOP:  cpu time    7.20: real time    7.23

 eigenvalue-minimisations  :   652
 total energy-change (2. order) :-0.1346914E-05  (-0.1768532E-05)
 number of electron     269.9999999 magnetization      -0.0000000
 augmentation part      -20.9909865 magnetization      -0.0000012

 Broyden mixing:
  rms(total) = 0.96207E-03    rms(broyden)= 0.96172E-03
  rms(prec ) = 0.10383E-02
  weight for this iteration     100.00

 eigenvalues of (default mixing * dielectric matrix)
  average eigenvalue GAMMA=   1.7903
  4.5284  2.8219  0.9941  0.9941  0.8281  0.5752

 Free energy of the ion-electron system (eV)
  ---------------------------------------------------
  alpha Z        PSCENC =        89.84601993
  Ewald energy   TEWEN  =     26212.20268857
  -Hartree energ DENC   =    -35322.36146962
  -exchange      EXHF   =         0.00000000
  -V(xc)+E(xc)   XCENC  =       238.26382678
  PAW double counting   =      3962.53589815    -3534.87750234
  entropy T*S    EENTRO =        -0.00000000
  eigenvalues    EBANDS =     -2285.25372048
  atomic energy  EATOM  =     10349.21864788
  ---------------------------------------------------
  free energy    TOTEN  =      -290.42561113 eV

  energy without entropy =     -290.42561113  energy(sigma->0) =     -290.42561113


--------------------------------------------------------------------------------------------------------




----------------------------------------- Iteration    1(  27)  ---------------------------------------


    POTLOK:  cpu time    0.66: real time    0.67
    SETDIJ:  cpu time    0.77: real time    0.77
    EDDIAG:  cpu time    0.93: real time    0.93
  RMM-DIIS:  cpu time    3.23: real time    3.24
    ORTHCH:  cpu time    0.02: real time    0.03
       DOS:  cpu time    0.00: real time    0.00
    CHARGE:  cpu time    1.15: real time    1.16
    MIXING:  cpu time    0.02: real time    0.02
    --------------------------------------------
      LOOP:  cpu time    6.80: real time    6.84

 eigenvalue-minimisations  :   569
 total energy-change (2. order) :-0.2690731E-05  (-0.6159898E-06)
 number of electron     269.9999999 magnetization      -0.0000000
 augmentation part      -20.9907007 magnetization      -0.0000007

 Broyden mixing:
  rms(total) = 0.44964E-03    rms(broyden)= 0.44916E-03
  rms(prec ) = 0.48790E-03
  weight for this iteration     100.00

 eigenvalues of (default mixing * dielectric matrix)
  average eigenvalue GAMMA=   1.8513
  4.7919  2.8962  1.8349  1.0114  1.0114  0.8338  0.5793

 Free energy of the ion-electron system (eV)
  ---------------------------------------------------
  alpha Z        PSCENC =        89.84601993
  Ewald energy   TEWEN  =     26212.20268857
  -Hartree energ DENC   =    -35322.42436716
  -exchange      EXHF   =         0.00000000
  -V(xc)+E(xc)   XCENC  =       238.26453468
[...]
      0.882307  6.460989  2.826405            0           0           0  
      4.203895  7.109219  0.530143            0           0           0  
      5.844326  8.582843  0.497672            0           0           0  
      5.846140  4.712482  2.571950            0           0           0  
      4.394574  6.368291  2.657199            0           0           0  
      7.475951  7.091176  0.579184            0           0           0  
      9.156845  8.547667  0.643553            0           0           0  
      9.116257  4.979390  2.916874            0           0           0  
      7.331319  6.347919  2.705740            0           0           0  
     10.807507  7.050011  0.678916            0           0           0  
     12.463881  8.540825  0.678757            0           0           0  
     12.475991  4.967789  2.912029            0           0           0  
     10.797934  6.435203  2.831571            0           0           0  
      0.859983 11.452599  0.778810            0           0           0  
      2.505213 12.940745  0.788565            0           0           0  
      2.540506  9.177487  2.774313            0           0           0  
      0.877167 10.654461  2.872524            0           0           0  
      4.173919 11.474295  0.762789            0           0           0  
      5.843474 12.939784  0.794838            0           0           0  
      5.801552  9.200592  2.690649            0           0           0  
      4.163769 10.693461  2.865028            0           0           0  
      7.495139 11.455871  0.793316            0           0           0  
      9.162751 12.921475  0.802328            0           0           0  
      9.141769  9.173227  2.790020            0           0           0  
      7.488257 10.652485  2.895743            0           0           0  
     10.821294 11.448267  0.787061            0           0           0  
     12.469003 12.940909  0.824357            0           0           0  
     12.465735  9.187819  2.821807            0           0           0  
     10.801416 10.657026  2.880692            0           0           0  
      5.710438  7.462716  4.131872            0           0           0  
      4.604656  8.248759  5.578979    -0.121975   -0.083506   -0.212853  
      5.854887  7.651198  6.366043     0.005944   -0.316031    0.035498  
      5.803678  6.284685  5.826451     0.718430   -0.167815   -0.293799  
      3.791797  8.937683  6.100693     0.056571    0.214710   -0.389549  
 
   9 f  =    2.972995 THz    18.679877 2PiTHz   99.168429 cm-1    12.295323 meV
             X         Y         Z           dx          dy          dz
      0.903283  2.741855  0.868100            0           0           0  
      2.577205  4.201099  0.855864            0           0           0  
      2.533930  0.496087  2.922613            0           0           0  
      0.886337  1.990901  2.975772            0           0           0  
      4.118664  2.598606  0.757634            0           0           0  
      5.856799  3.968095  0.485792            0           0           0  
      5.844102  0.494404  2.920954            0           0           0  
      4.192790  1.978377  2.912230            0           0           0  
      7.580171  2.575345  0.737813            0           0           0  
      9.140196  4.166985  0.809066            0           0           0  
      9.156140  0.496313  2.927480            0           0           0  
      7.496743  1.978327  2.898579            0           0           0  
     10.815516  2.712489  0.849263            0           0           0  
     12.477234  4.192174  0.821884            0           0           0  
     12.474709  0.511814  2.954009            0           0           0  
     10.809038  1.988643  2.965312            0           0           0  
      0.876396  7.059774  0.667901            0           0           0  
      2.522442  8.564456  0.621043            0           0           0  
      2.589171  5.038820  2.968374            0           0           0  
      0.882307  6.460989  2.826405            0           0           0  
      4.203895  7.109219  0.530143            0           0           0  
      5.844326  8.582843  0.497672            0           0           0  
      5.846140  4.712482  2.571950            0           0           0  
      4.394574  6.368291  2.657199            0           0           0  
      7.475951  7.091176  0.579184            0           0           0  
      9.156845  8.547667  0.643553            0           0           0  
      9.116257  4.979390  2.916874            0           0           0  
      7.331319  6.347919  2.705740            0           0           0  
     10.807507  7.050011  0.678916            0           0           0  
     12.463881  8.540825  0.678757            0           0           0  
     12.475991  4.967789  2.912029            0           0           0  
     10.797934  6.435203  2.831571            0           0           0  
      0.859983 11.452599  0.778810            0           0           0  
      2.505213 12.940745  0.788565            0           0           0  
      2.540506  9.177487  2.774313            0           0           0  
      0.877167 10.654461  2.872524            0           0           0  
      4.173919 11.474295  0.762789            0           0           0  
      5.843474 12.939784  0.794838            0           0           0  
      5.801552  9.200592  2.690649            0           0           0  
      4.163769 10.693461  2.865028            0           0           0  
      7.495139 11.455871  0.793316            0           0           0  
      9.162751 12.921475  0.802328            0           0           0  
      9.141769  9.173227  2.790020            0           0           0  
      7.488257 10.652485  2.895743            0           0           0  
     10.821294 11.448267  0.787061            0           0           0  
     12.469003 12.940909  0.824357            0           0           0  
     12.465735  9.187819  2.821807            0           0           0  
     10.801416 10.657026  2.880692            0           0           0  
      5.710438  7.462716  4.131872            0           0           0  
      4.604656  8.248759  5.578979    -0.059541    0.100487   -0.144850  
      5.854887  7.651198  6.366043    -0.165411   -0.530196   -0.013498  
      5.803678  6.284685  5.826451    -0.603224   -0.368645   -0.205938  
      3.791797  8.937683  6.100693     0.133452    0.287880   -0.117692  
 
  10 f  =    2.336190 THz    14.678713 2PiTHz   77.926897 cm-1     9.661707 meV
             X         Y         Z           dx          dy          dz
      0.903283  2.741855  0.868100            0           0           0  
      2.577205  4.201099  0.855864            0           0           0  
      2.533930  0.496087  2.922613            0           0           0  
      0.886337  1.990901  2.975772            0           0           0  
      4.118664  2.598606  0.757634            0           0           0  
      5.856799  3.968095  0.485792            0           0           0  
      5.844102  0.494404  2.920954            0           0           0  
      4.192790  1.978377  2.912230            0           0           0  
      7.580171  2.575345  0.737813            0           0           0  
      9.140196  4.166985  0.809066            0           0           0  
      9.156140  0.496313  2.927480            0           0           0  
      7.496743  1.978327  2.898579            0           0           0  
     10.815516  2.712489  0.849263            0           0           0  
     12.477234  4.192174  0.821884            0           0           0  
     12.474709  0.511814  2.954009            0           0           0  
     10.809038  1.988643  2.965312            0           0           0  
      0.876396  7.059774  0.667901            0           0           0  
      2.522442  8.564456  0.621043            0           0           0  
      2.589171  5.038820  2.968374            0           0           0  
      0.882307  6.460989  2.826405            0           0           0  
      4.203895  7.109219  0.530143            0           0           0  
      5.844326  8.582843  0.497672            0           0           0  
      5.846140  4.712482  2.571950            0           0           0  
      4.394574  6.368291  2.657199            0           0           0  
      7.475951  7.091176  0.579184            0           0           0  
      9.156845  8.547667  0.643553            0           0           0  
      9.116257  4.979390  2.916874            0           0           0  
      7.331319  6.347919  2.705740            0           0           0  
     10.807507  7.050011  0.678916            0           0           0  
     12.463881  8.540825  0.678757            0           0           0  
     12.475991  4.967789  2.912029            0           0           0  
     10.797934  6.435203  2.831571            0           0           0  
      0.859983 11.452599  0.778810            0           0           0  
      2.505213 12.940745  0.788565            0           0           0  
      2.540506  9.177487  2.774313            0           0           0  
      0.877167 10.654461  2.872524            0           0           0  
      4.173919 11.474295  0.762789            0           0           0  
      5.843474 12.939784  0.794838            0           0           0  
      5.801552  9.200592  2.690649            0           0           0  
      4.163769 10.693461  2.865028            0           0           0  
      7.495139 11.455871  0.793316            0           0           0  
      9.162751 12.921475  0.802328            0           0           0  
      9.141769  9.173227  2.790020            0           0           0  
      7.488257 10.652485  2.895743            0           0           0  
     10.821294 11.448267  0.787061            0           0           0  
     12.469003 12.940909  0.824357            0           0           0  
     12.465735  9.187819  2.821807            0           0           0  
     10.801416 10.657026  2.880692            0           0           0  
      5.710438  7.462716  4.131872            0           0           0  
      4.604656  8.248759  5.578979     0.019205   -0.294922    0.218759  
      5.854887  7.651198  6.366043     0.045290   -0.404595    0.077401  
      5.803678  6.284685  5.826451     0.120219   -0.296793   -0.215018  
      3.791797  8.937683  6.100693    -0.040469   -0.571901    0.464303  
 
  11 f  =    1.418448 THz     8.912372 2PiTHz   47.314335 cm-1     5.866232 meV
             X         Y         Z           dx          dy          dz
      0.903283  2.741855  0.868100            0           0           0  
      2.577205  4.201099  0.855864            0           0           0  
      2.533930  0.496087  2.922613            0           0           0  
      0.886337  1.990901  2.975772            0           0           0  
      4.118664  2.598606  0.757634            0           0           0  
      5.856799  3.968095  0.485792            0           0           0  
      5.844102  0.494404  2.920954            0           0           0  
      4.192790  1.978377  2.912230            0           0           0  
      7.580171  2.575345  0.737813            0           0           0  
      9.140196  4.166985  0.809066            0           0           0  
      9.156140  0.496313  2.927480            0           0           0  
      7.496743  1.978327  2.898579            0           0           0  
     10.815516  2.712489  0.849263            0           0           0  
     12.477234  4.192174  0.821884            0           0           0  
     12.474709  0.511814  2.954009            0           0           0  
     10.809038  1.988643  2.965312            0           0           0  
      0.876396  7.059774  0.667901            0           0           0  
      2.522442  8.564456  0.621043            0           0           0  
      2.589171  5.038820  2.968374            0           0           0  
      0.882307  6.460989  2.826405            0           0           0  
      4.203895  7.109219  0.530143            0           0           0  
      5.844326  8.582843  0.497672            0           0           0  
      5.846140  4.712482  2.571950            0           0           0  
      4.394574  6.368291  2.657199            0           0           0  
      7.475951  7.091176  0.579184            0           0           0  
      9.156845  8.547667  0.643553            0           0           0  
      9.116257  4.979390  2.916874            0           0           0  
      7.331319  6.347919  2.705740            0           0           0  
     10.807507  7.050011  0.678916            0           0           0  
     12.463881  8.540825  0.678757            0           0           0  
     12.475991  4.967789  2.912029            0           0           0  
     10.797934  6.435203  2.831571            0           0           0  
      0.859983 11.452599  0.778810            0           0           0  
      2.505213 12.940745  0.788565            0           0           0  
      2.540506  9.177487  2.774313            0           0           0  
      0.877167 10.654461  2.872524            0           0           0  
      4.173919 11.474295  0.762789            0           0           0  
      5.843474 12.939784  0.794838            0           0           0  
      5.801552  9.200592  2.690649            0           0           0  
      4.163769 10.693461  2.865028            0           0           0  
      7.495139 11.455871  0.793316            0           0           0  
      9.162751 12.921475  0.802328            0           0           0  
      9.141769  9.173227  2.790020            0           0           0  
      7.488257 10.652485  2.895743            0           0           0  
     10.821294 11.448267  0.787061            0           0           0  
     12.469003 12.940909  0.824357            0           0           0  
     12.465735  9.187819  2.821807            0           0           0  
     10.801416 10.657026  2.880692            0           0           0  
      5.710438  7.462716  4.131872            0           0           0  
      4.604656  8.248759  5.578979     0.308495    0.104393    0.243137  
      5.854887  7.651198  6.366043     0.243088   -0.013686    0.027383  
      5.803678  6.284685  5.826451     0.153267   -0.013031   -0.029655  
      3.791797  8.937683  6.100693     0.654263    0.407116    0.395531  
 
  12 f/i=    5.115649 THz    32.142573 2PiTHz  170.639693 cm-1    21.156633 meV
             X         Y         Z           dx          dy          dz
      0.903283  2.741855  0.868100            0           0           0  
      2.577205  4.201099  0.855864            0           0           0  
      2.533930  0.496087  2.922613            0           0           0  
      0.886337  1.990901  2.975772            0           0           0  
      4.118664  2.598606  0.757634            0           0           0  
      5.856799  3.968095  0.485792            0           0           0  
      5.844102  0.494404  2.920954            0           0           0  
      4.192790  1.978377  2.912230            0           0           0  
      7.580171  2.575345  0.737813            0           0           0  
      9.140196  4.166985  0.809066            0           0           0  
      9.156140  0.496313  2.927480            0           0           0  
      7.496743  1.978327  2.898579            0           0           0  
     10.815516  2.712489  0.849263            0           0           0  
     12.477234  4.192174  0.821884            0           0           0  
     12.474709  0.511814  2.954009            0           0           0  
     10.809038  1.988643  2.965312            0           0           0  
      0.876396  7.059774  0.667901            0           0           0  
      2.522442  8.564456  0.621043            0           0           0  
      2.589171  5.038820  2.968374            0           0           0  
      0.882307  6.460989  2.826405            0           0           0  
      4.203895  7.109219  0.530143            0           0           0  
      5.844326  8.582843  0.497672            0           0           0  
      5.846140  4.712482  2.571950            0           0           0  
      4.394574  6.368291  2.657199            0           0           0  
      7.475951  7.091176  0.579184            0           0           0  
      9.156845  8.547667  0.643553            0           0           0  
      9.116257  4.979390  2.916874            0           0           0  
      7.331319  6.347919  2.705740            0           0           0  
     10.807507  7.050011  0.678916            0           0           0  
     12.463881  8.540825  0.678757            0           0           0  
     12.475991  4.967789  2.912029            0           0           0  
     10.797934  6.435203  2.831571            0           0           0  
      0.859983 11.452599  0.778810            0           0           0  
      2.505213 12.940745  0.788565            0           0           0  
      2.540506  9.177487  2.774313            0           0           0  
      0.877167 10.654461  2.872524            0           0           0  
      4.173919 11.474295  0.762789            0           0           0  
      5.843474 12.939784  0.794838            0           0           0  
      5.801552  9.200592  2.690649            0           0           0  
      4.163769 10.693461  2.865028            0           0           0  
      7.495139 11.455871  0.793316            0           0           0  
      9.162751 12.921475  0.802328            0           0           0  
      9.141769  9.173227  2.790020            0           0           0  
      7.488257 10.652485  2.895743            0           0           0  
     10.821294 11.448267  0.787061            0           0           0  
     12.469003 12.940909  0.824357            0           0           0  
     12.465735  9.187819  2.821807            0           0           0  
     10.801416 10.657026  2.880692            0           0           0  
      5.710438  7.462716  4.131872            0           0           0  
      4.604656  8.248759  5.578979    -0.148709    0.183628   -0.327288  
      5.854887  7.651198  6.366043     0.780275   -0.080442   -0.441770  
      5.803678  6.284685  5.826451    -0.056753   -0.062787    0.028403  
      3.791797  8.937683  6.100693    -0.065357   -0.105847    0.056071  
 
 Finite differences POTIM=  2.000000000000000E-002
 writing wavefunctions
     LOOP+:  cpu time  106.40: real time  114.75
    4ORBIT:  cpu time    0.00: real time    0.00

 total amount of memory used by VASP on root node   105679. kBytes
========================================================================

   base      :      30000. kBytes
   nonlr-proj:        391. kBytes
   fftplans  :      38318. kBytes
   grid      :      31266. kBytes
   one-center:         31. kBytes
   wavefun   :       5673. kBytes
 
  
  
 General timing and accounting informations for this job:
 ========================================================
  
                  Total CPU time used (sec):     3086.122
                            User time (sec):     2839.860
                          System time (sec):      246.262
                         Elapsed time (sec):     3252.722
  
                   Maximum memory used (kb):      378192.
                   Average memory used (kb):           0.
  
                          Minor page faults:       720820
                          Major page faults:          198
                 Voluntary context switches:        12715
