 running on   48 total cores
 distrk:  each k-point on   48 cores,    1 groups
 distr:  one band on   48 cores,    1 groups
 using from now: INCAR     
 vasp.5.3.5 31Mar14 (build Oct 09 2016 14:59:48) gamma-only                     
  
 POSCAR found type information on POSCAR  P  Ru C  O 
 POSCAR found :  4 types and      53 ions
 scaLAPACK will be used

 ----------------------------------------------------------------------------- 
|                                                                             |
|           W    W    AA    RRRRR   N    N  II  N    N   GGGG   !!!           |
|           W    W   A  A   R    R  NN   N  II  NN   N  G    G  !!!           |
|           W    W  A    A  R    R  N N  N  II  N N  N  G       !!!           |
|           W WW W  AAAAAA  RRRRR   N  N N  II  N  N N  G  GGG   !            |
|           WW  WW  A    A  R   R   N   NN  II  N   NN  G    G                |
|           W    W  A    A  R    R  N    N  II  N    N   GGGG   !!!           |
|                                                                             |
|      For optimal performance we recommend to set                            |
|        NCORE= 4 - approx SQRT( number of cores)                             |
|      NCORE specifies how many cores store one orbital (NPAR=cpu/NCORE).     |
|      This setting can  greatly improve the performance of VASP for DFT.     |
|      The default, NPAR=number of cores might be grossly inefficient         |
|      on modern multi-core architectures or massively parallel machines.     |
|      Do your own testing !!!!                                               |
|      Unfortunately you need to use the default for GW and RPA calculations. |
|      (for HF NCORE is supported but not extensively tested yet)             |
|                                                                             |
 ----------------------------------------------------------------------------- 

 LDA part: xc-table for Pade appr. of Perdew
 POSCAR found type information on POSCAR  P  Ru C  O 
 POSCAR found :  4 types and      53 ions
 POSCAR, INCAR and KPOINTS ok, starting setup
 FFT: planning ...
 WAVECAR not read
 WARNING: chargedensity file is incomplete
 entering main loop
       N       E                     dE             d eps       ncg     rms          rms(c)
RMM:   1     0.351858869626E+04    0.35186E+04   -0.73051E+04   378   0.929E+02
RMM:   2     0.121140607272E+04   -0.23072E+04   -0.25206E+04   378   0.203E+02
RMM:   3     0.408647909680E+03   -0.80276E+03   -0.10740E+04   378   0.117E+02
RMM:   4    -0.140772882876E+02   -0.42273E+03   -0.41231E+03   378   0.921E+01
RMM:   5    -0.177822813387E+03   -0.16375E+03   -0.14405E+03   378   0.595E+01
RMM:   6    -0.238920620112E+03   -0.61098E+02   -0.52265E+02   378   0.372E+01
RMM:   7    -0.262193276210E+03   -0.23273E+02   -0.20702E+02   378   0.232E+01
RMM:   8    -0.272949572327E+03   -0.10756E+02   -0.92076E+01   378   0.153E+01
RMM:   9    -0.277954643180E+03   -0.50051E+01   -0.45710E+01   378   0.105E+01
RMM:  10    -0.280471688172E+03   -0.25170E+01   -0.22819E+01   378   0.743E+00
RMM:  11    -0.281711730078E+03   -0.12400E+01   -0.11639E+01   378   0.525E+00
RMM:  12    -0.282367826043E+03   -0.65610E+00   -0.60838E+00   378   0.384E+00
RMM:  13    -0.282708587138E+03   -0.34076E+00   -0.32480E+00   378   0.278E+00
RMM:  14    -0.282897360007E+03   -0.18877E+00   -0.17737E+00   378   0.210E+00
RMM:  15    -0.283130271951E+03   -0.23291E+00   -0.22907E+00  1007   0.154E+00
RMM:  16    -0.283143687619E+03   -0.13416E-01   -0.12081E-01  1026   0.268E-01
RMM:  17    -0.283145293427E+03   -0.16058E-02   -0.14494E-02  1074   0.807E-02
RMM:  18    -0.283145613060E+03   -0.31963E-03   -0.33149E-03   964   0.341E-02
RMM:  19    -0.283145688038E+03   -0.74977E-04   -0.71818E-04   851   0.135E-02
RMM:  20    -0.283145711947E+03   -0.23909E-04   -0.22570E-04   703   0.658E-03    0.292E+01
RMM:  21    -0.291949541793E+03   -0.88038E+01   -0.65154E+00   763   0.445E+00    0.129E+01
RMM:  22    -0.291258205853E+03    0.69134E+00   -0.25653E+00   760   0.242E+00    0.844E+00
RMM:  23    -0.290828525483E+03    0.42968E+00   -0.15755E+00   763   0.239E+00    0.546E+00
RMM:  24    -0.290457507087E+03    0.37102E+00   -0.97914E-01   758   0.159E+00    0.138E+00
RMM:  25    -0.290440223283E+03    0.17284E-01   -0.83798E-02   778   0.557E-01    0.741E-01
RMM:  26    -0.290429648461E+03    0.10575E-01   -0.27997E-02   785   0.274E-01    0.437E-01
RMM:  27    -0.290425762703E+03    0.38858E-02   -0.17655E-02   756   0.223E-01    0.170E-01
RMM:  28    -0.290425697031E+03    0.65672E-04   -0.33034E-03   787   0.114E-01    0.853E-02
RMM:  29    -0.290425605461E+03    0.91569E-04   -0.71116E-04   774   0.430E-02    0.410E-02
RMM:  30    -0.290425608207E+03   -0.27452E-05   -0.13713E-04   797   0.213E-02    0.229E-02
RMM:  31    -0.290425612539E+03   -0.43322E-05   -0.52524E-05   764   0.113E-02    0.949E-03
RMM:  32    -0.290425614592E+03   -0.20527E-05   -0.84162E-06   725   0.579E-03    0.519E-03
RMM:  33    -0.290425614734E+03   -0.14278E-06   -0.22256E-06   507   0.283E-03
   1 F= -.29039897E+03 E0= -.29039897E+03  d E =-.112334E-17  mag=    -0.0000
 Finite differences POTIM= 0.02000 DOF=   9
 bond charge predicted
       N       E                     dE             d eps       ncg     rms          rms(c)
RMM:   1    -0.290443105348E+03   -0.17491E-01   -0.24451E+00   764   0.248E+00    0.340E-01
RMM:   2    -0.290424902714E+03    0.18203E-01   -0.35844E-02   780   0.263E-01    0.214E-01
RMM:   3    -0.290424742055E+03    0.16066E-03   -0.37486E-03   910   0.687E-02    0.180E-01
RMM:   4    -0.290424803375E+03   -0.61320E-04   -0.66095E-04   728   0.290E-02    0.117E-01
RMM:   5    -0.290425141899E+03   -0.33852E-03   -0.48894E-04   758   0.290E-02    0.616E-02
RMM:   6    -0.290425069661E+03    0.72237E-04   -0.12631E-04   695   0.153E-02    0.234E-02
RMM:   7    -0.290425065447E+03    0.42145E-05   -0.97890E-05   721   0.102E-02    0.109E-02
RMM:   8    -0.290425067327E+03   -0.18797E-05   -0.55751E-06   553   0.399E-03    0.663E-03
RMM:   9    -0.290425067576E+03   -0.24923E-06   -0.29372E-06   526   0.277E-03
   2 F= -.29039833E+03 E0= -.29039833E+03  d E =-.108439E-16  mag=    -0.0000
 Finite differences progress:
  Degree of freedom:   1/  9
  Displacement:        1/  2
  Total:               1/ 18
 bond charge predicted
       N       E                     dE             d eps       ncg     rms          rms(c)
RMM:   1    -0.290513684137E+03   -0.88617E-01   -0.99361E+00   764   0.489E+00    0.572E-01
RMM:   2    -0.290425316922E+03    0.88367E-01   -0.13268E-01   760   0.551E-01    0.526E-01
RMM:   3    -0.290424148187E+03    0.11687E-02   -0.16485E-02   932   0.129E-01    0.423E-01
RMM:   4    -0.290424249002E+03   -0.10082E-03   -0.42920E-03   777   0.793E-02    0.221E-01
RMM:   5    -0.290425033361E+03   -0.78436E-03   -0.98999E-04   762   0.501E-02    0.116E-01
RMM:   6    -0.290424913098E+03    0.12026E-03   -0.35602E-04   735   0.292E-02    0.465E-02
RMM:   7    -0.290424910811E+03    0.22871E-05   -0.83097E-05   716   0.114E-02    0.260E-02
RMM:   8    -0.290424915162E+03   -0.43515E-05   -0.34007E-05   686   0.802E-03    0.108E-02
RMM:   9    -0.290424917154E+03   -0.19918E-05   -0.12777E-05   628   0.591E-03    0.510E-03
RMM:  10    -0.290424917245E+03   -0.90631E-07   -0.22584E-06   520   0.257E-03
   3 F= -.29039833E+03 E0= -.29039833E+03  d E =-.110086E-16  mag=     0.0000
 Finite differences progress:
  Degree of freedom:   1/  9
  Displacement:        2/  2
  Total:               2/ 18
 bond charge predicted
       N       E                     dE             d eps       ncg     rms          rms(c)
RMM:   1    -0.290457349843E+03   -0.32433E-01   -0.47326E+00   764   0.341E+00    0.539E-01
RMM:   2    -0.290422111797E+03    0.35238E-01   -0.64097E-02   765   0.375E-01    0.309E-01
RMM:   3    -0.290421672551E+03    0.43925E-03   -0.71323E-03   873   0.938E-02    0.256E-01
RMM:   4    -0.290421931816E+03   -0.25926E-03   -0.14839E-03   755   0.457E-02    0.162E-01
RMM:   5    -0.290422621401E+03   -0.68959E-03   -0.73993E-04   749   0.405E-02    0.844E-02
RMM:   6    -0.290422527160E+03    0.94241E-04   -0.27635E-04   711   0.221E-02    0.298E-02
RMM:   7    -0.290422543992E+03   -0.16832E-04   -0.13314E-04   746   0.128E-02    0.220E-02
RMM:   8    -0.290422549045E+03   -0.50537E-05   -0.11294E-05   607   0.539E-03    0.120E-02
RMM:   9    -0.290422551752E+03   -0.27068E-05   -0.13784E-05   614   0.569E-03    0.557E-03
RMM:  10    -0.290422551159E+03    0.59353E-06   -0.19789E-06   496   0.248E-03
   4 F= -.29039545E+03 E0= -.29039545E+03  d E =-.209059E-10  mag=     0.0000
 Finite differences progress:
  Degree of freedom:   2/  9
  Displacement:        1/  2
  Total:               3/ 18
 bond charge predicted
       N       E                     dE             d eps       ncg     rms          rms(c)
RMM:   1    -0.290455803711E+03   -0.33252E-01   -0.85478E+00   762   0.464E+00    0.603E-01
RMM:   2    -0.290423113806E+03    0.32690E-01   -0.12804E-01   771   0.543E-01    0.601E-01
RMM:   3    -0.290421504079E+03    0.16097E-02   -0.13056E-02   956   0.126E-01    0.540E-01
RMM:   4    -0.290420213267E+03    0.12908E-02   -0.46033E-03   765   0.790E-02    0.347E-01
RMM:   5    -0.290423701116E+03   -0.34878E-02   -0.13520E-02   800   0.140E-01    0.279E-01
RMM:   6    -0.290422556410E+03    0.11447E-02   -0.11634E-03   753   0.566E-02    0.170E-01
RMM:   7    -0.290422150037E+03    0.40637E-03   -0.18315E-03   739   0.456E-02    0.475E-02
RMM:   8    -0.290422247401E+03   -0.97363E-04   -0.23396E-04   810   0.189E-02    0.268E-02
RMM:   9    -0.290422267024E+03   -0.19623E-04   -0.32445E-05   670   0.778E-03    0.263E-02
RMM:  10    -0.290422260895E+03    0.61288E-05   -0.89261E-05   697   0.112E-02    0.845E-03
RMM:  11    -0.290422262178E+03   -0.12836E-05   -0.60912E-06   546   0.408E-03    0.746E-03
RMM:  12    -0.290422261610E+03    0.56841E-06   -0.66922E-07   454   0.171E-03
   5 F= -.29039609E+03 E0= -.29039609E+03  d E =-.853788E-12  mag=    -0.0000
 Finite differences progress:
  Degree of freedom:   2/  9
  Displacement:        2/  2
  Total:               4/ 18
 bond charge predicted
       N       E                     dE             d eps       ncg     rms          rms(c)
RMM:   1    -0.290441594351E+03   -0.19332E-01   -0.44019E+00   771   0.329E+00    0.501E-01
RMM:   2    -0.290422830613E+03    0.18764E-01   -0.56487E-02   764   0.372E-01    0.327E-01
RMM:   3    -0.290422433796E+03    0.39682E-03   -0.65212E-03   889   0.895E-02    0.273E-01
RMM:   4    -0.290422536398E+03   -0.10260E-03   -0.16046E-03   759   0.489E-02    0.166E-01
RMM:   5    -0.290423193328E+03   -0.65693E-03   -0.84136E-04   753   0.422E-02    0.761E-02
RMM:   6    -0.290423122779E+03    0.70550E-04   -0.40149E-04   707   0.251E-02    0.257E-02
RMM:   7    -0.290423126788E+03   -0.40088E-05   -0.54423E-05   727   0.102E-02    0.237E-02
RMM:   8    -0.290423138605E+03   -0.11817E-04   -0.44201E-05   661   0.889E-03    0.114E-02
RMM:   9    -0.290423141492E+03   -0.28874E-05   -0.53686E-06   558   0.380E-03    0.801E-03
RMM:  10    -0.290423140119E+03    0.13730E-05   -0.31895E-06   509   0.255E-03    0.281E-03
RMM:  11    -0.290423140291E+03   -0.17218E-06   -0.14272E-06   450   0.178E-03
   6 F= -.29039540E+03 E0= -.29039540E+03  d E =-.152204E-14  mag=     0.0000
 Finite differences progress:
  Degree of freedom:   3/  9
  Displacement:        1/  2
  Total:               5/ 18
 bond charge predicted
       N       E                     dE             d eps       ncg     rms          rms(c)
RMM:   1    -0.290495083444E+03   -0.71943E-01   -0.93749E+00   764   0.479E+00    0.672E-01
RMM:   2    -0.290427081421E+03    0.68002E-01   -0.14474E-01   756   0.641E-01    0.608E-01
RMM:   3    -0.290423340362E+03    0.37411E-02   -0.80558E-03   852   0.122E-01    0.438E-01
RMM:   4    -0.290423347569E+03   -0.72074E-05   -0.14624E-02   776   0.141E-01    0.213E-01
RMM:   5    -0.290423632245E+03   -0.28468E-03   -0.21432E-03   846   0.701E-02    0.202E-01
RMM:   6    -0.290423000338E+03    0.63191E-03   -0.82539E-04   753   0.391E-02    0.946E-02
RMM:   7    -0.290423114029E+03   -0.11369E-03   -0.17130E-03   771   0.425E-02    0.549E-02
RMM:   8    -0.290423054382E+03    0.59647E-04   -0.22752E-04   698   0.209E-02    0.196E-02
RMM:   9    -0.290423066943E+03   -0.12561E-04   -0.63362E-05   707   0.103E-02    0.264E-02
RMM:  10    -0.290423054581E+03    0.12362E-04   -0.47949E-05   668   0.891E-03    0.388E-03
RMM:  11    -0.290423055803E+03   -0.12218E-05   -0.61697E-06   527   0.395E-03    0.412E-03
RMM:  12    -0.290423055451E+03    0.35238E-06   -0.65375E-07   435   0.176E-03
   7 F= -.29039746E+03 E0= -.29039746E+03  d E =-.744484E-15  mag=    -0.0000
 Finite differences progress:
  Degree of freedom:   3/  9
  Displacement:        2/  2
  Total:               6/ 18
 bond charge predicted
       N       E                     dE             d eps       ncg     rms          rms(c)
RMM:   1    -0.290455543088E+03   -0.32487E-01   -0.48647E+00   770   0.359E+00    0.474E-01
RMM:   2    -0.290423616948E+03    0.31926E-01   -0.52309E-02   756   0.384E-01    0.341E-01
RMM:   3    -0.290423370369E+03    0.24658E-03   -0.50597E-03   860   0.816E-02    0.255E-01
RMM:   4    -0.290424618250E+03   -0.12479E-02   -0.84663E-04   762   0.393E-02    0.140E-01
RMM:   5    -0.290425263302E+03   -0.64505E-03   -0.40078E-04   760   0.338E-02    0.549E-02
RMM:   6    -0.290425201366E+03    0.61936E-04   -0.11523E-04   712   0.156E-02    0.218E-02
RMM:   7    -0.290425199097E+03    0.22695E-05   -0.59477E-05   740   0.837E-03    0.181E-02
RMM:   8    -0.290425199437E+03   -0.34064E-06   -0.83829E-06   592   0.474E-03
   8 F= -.29039838E+03 E0= -.29039838E+03  d E =-.971711E-14  mag=    -0.0000
 Finite differences progress:
  Degree of freedom:   4/  9
  Displacement:        1/  2
  Total:               7/ 18
 bond charge predicted
       N       E                     dE             d eps       ncg     rms          rms(c)
RMM:   1    -0.290494203762E+03   -0.69005E-01   -0.10063E+01   760   0.469E+00    0.817E-01
RMM:   2    -0.290422554775E+03    0.71649E-01   -0.12231E-01   764   0.531E-01    0.596E-01
RMM:   3    -0.290420330170E+03    0.22246E-02   -0.96329E-03   834   0.109E-01    0.473E-01
RMM:   4    -0.290424177170E+03   -0.38470E-02   -0.93312E-03   763   0.119E-01    0.295E-01
RMM:   5    -0.290426123363E+03   -0.19462E-02   -0.24178E-03   780   0.632E-02    0.236E-01
RMM:   6    -0.290425191540E+03    0.93182E-03   -0.92606E-04   730   0.371E-02    0.121E-01
RMM:   7    -0.290425061840E+03    0.12970E-03   -0.23220E-03   757   0.521E-02    0.493E-02
RMM:   8    -0.290425035157E+03    0.26684E-04   -0.83659E-05   677   0.182E-02    0.263E-02
RMM:   9    -0.290425028798E+03    0.63582E-05   -0.75004E-05   661   0.999E-03    0.978E-03
RMM:  10    -0.290425029370E+03   -0.57175E-06   -0.13575E-05   613   0.504E-03    0.697E-03
RMM:  11    -0.290425028364E+03    0.10063E-05   -0.24763E-06   505   0.252E-03    0.172E-03
RMM:  12    -0.290425028499E+03   -0.13476E-06   -0.76530E-07   428   0.149E-03
   9 F= -.29039850E+03 E0= -.29039850E+03  d E =-.915860E-15  mag=     0.0000
 Finite differences progress:
  Degree of freedom:   4/  9
  Displacement:        2/  2
  Total:               8/ 18
 bond charge predicted
       N       E                     dE             d eps       ncg     rms          rms(c)
RMM:   1    -0.290443605741E+03   -0.18577E-01   -0.46390E+00   764   0.343E+00    0.550E-01
RMM:   2    -0.290417897225E+03    0.25709E-01   -0.55680E-02   764   0.419E-01    0.467E-01
RMM:   3    -0.290417648698E+03    0.24853E-03   -0.77132E-03   833   0.956E-02    0.323E-01
RMM:   4    -0.290419977398E+03   -0.23287E-02   -0.21380E-03   762   0.666E-02    0.172E-01
RMM:   5    -0.290420730028E+03   -0.75263E-03   -0.59582E-04   764   0.410E-02    0.911E-02
RMM:   6    -0.290420635137E+03    0.94892E-04   -0.22295E-04   717   0.195E-02    0.439E-02
RMM:   7    -0.290420643658E+03   -0.85213E-05   -0.17962E-04   710   0.165E-02    0.169E-02
RMM:   8    -0.290420646886E+03   -0.32284E-05   -0.23083E-05   669   0.847E-03    0.128E-02
RMM:   9    -0.290420642795E+03    0.40912E-05   -0.15635E-05   620   0.474E-03    0.445E-03
RMM:  10    -0.290420642923E+03   -0.12784E-06   -0.12234E-06   493   0.222E-03
  10 F= -.29039466E+03 E0= -.29039466E+03  d E =-.229631E-18  mag=    -0.0000
 Finite differences progress:
  Degree of freedom:   5/  9
  Displacement:        1/  2
  Total:               9/ 18
 bond charge predicted
       N       E                     dE             d eps       ncg     rms          rms(c)
RMM:   1    -0.290450318687E+03   -0.29676E-01   -0.85379E+00   772   0.467E+00    0.107E+00
RMM:   2    -0.290418358126E+03    0.31961E-01   -0.15924E-01   760   0.666E-01    0.607E-01
RMM:   3    -0.290417579973E+03    0.77815E-03   -0.18924E-02   919   0.157E-01    0.526E-01
RMM:   4    -0.290418209893E+03   -0.62992E-03   -0.58319E-03   761   0.944E-02    0.357E-01
RMM:   5    -0.290422807831E+03   -0.45979E-02   -0.87130E-03   768   0.108E-01    0.275E-01
RMM:   6    -0.290421550242E+03    0.12576E-02   -0.98578E-04   750   0.492E-02    0.171E-01
RMM:   7    -0.290420998954E+03    0.55129E-03   -0.24131E-03   759   0.498E-02    0.445E-02
RMM:   8    -0.290421015480E+03   -0.16525E-04   -0.11492E-04   773   0.164E-02    0.337E-02
RMM:   9    -0.290421007567E+03    0.79126E-05   -0.70887E-05   696   0.118E-02    0.183E-02
RMM:  10    -0.290421008284E+03   -0.71657E-06   -0.68478E-05   735   0.927E-03    0.759E-03
RMM:  11    -0.290421007836E+03    0.44727E-06   -0.45440E-06   561   0.349E-03
  11 F= -.29039369E+03 E0= -.29039369E+03  d E =-.107996E-16  mag=     0.0000
 Finite differences progress:
  Degree of freedom:   5/  9
  Displacement:        2/  2
  Total:              10/ 18
 bond charge predicted
       N       E                     dE             d eps       ncg     rms          rms(c)
RMM:   1    -0.290435299666E+03   -0.14291E-01   -0.42179E+00   769   0.335E+00    0.529E-01
RMM:   2    -0.290422277159E+03    0.13023E-01   -0.48937E-02   762   0.379E-01    0.486E-01
RMM:   3    -0.290421590427E+03    0.68673E-03   -0.55736E-03   890   0.811E-02    0.376E-01
RMM:   4    -0.290423542410E+03   -0.19520E-02   -0.40670E-03   754   0.864E-02    0.177E-01
RMM:   5    -0.290424165012E+03   -0.62260E-03   -0.73859E-04   762   0.452E-02    0.141E-01
RMM:   6    -0.290423932220E+03    0.23279E-03   -0.14491E-04   696   0.162E-02    0.101E-01
RMM:   7    -0.290423847736E+03    0.84484E-04   -0.11497E-04   672   0.130E-02    0.666E-02
RMM:   8    -0.290423818634E+03    0.29102E-04   -0.35144E-04   709   0.222E-02    0.156E-02
RMM:   9    -0.290423823059E+03   -0.44249E-05   -0.42941E-05   664   0.991E-03    0.931E-03
RMM:  10    -0.290423822111E+03    0.94812E-06   -0.74382E-06   563   0.381E-03
  12 F= -.29039680E+03 E0= -.29039680E+03  d E =-.111618E-11  mag=     0.0000
 Finite differences progress:
  Degree of freedom:   6/  9
  Displacement:        1/  2
  Total:              11/ 18
 bond charge predicted
       N       E                     dE             d eps       ncg     rms          rms(c)
RMM:   1    -0.290485104883E+03   -0.61282E-01   -0.92393E+00   758   0.494E+00    0.727E-01
RMM:   2    -0.290425072075E+03    0.60033E-01   -0.14052E-01   764   0.771E-01    0.543E-01
RMM:   3    -0.290422303445E+03    0.27686E-02   -0.96371E-03   849   0.116E-01    0.447E-01
RMM:   4    -0.290422194810E+03    0.10864E-03   -0.66725E-03   761   0.963E-02    0.271E-01
RMM:   5    -0.290426046335E+03   -0.38515E-02   -0.90272E-03   764   0.116E-01    0.335E-01
RMM:   6    -0.290423729901E+03    0.23164E-02   -0.20124E-03   752   0.595E-02    0.157E-01
RMM:   7    -0.290423448544E+03    0.28136E-03   -0.83423E-04   722   0.334E-02    0.765E-02
RMM:   8    -0.290423435145E+03    0.13399E-04   -0.16042E-04   730   0.156E-02    0.503E-02
RMM:   9    -0.290423417610E+03    0.17535E-04   -0.59887E-05   712   0.963E-03    0.315E-02
RMM:  10    -0.290423405194E+03    0.12416E-04   -0.11889E-04   703   0.123E-02    0.520E-03
RMM:  11    -0.290423407233E+03   -0.20395E-05   -0.98862E-06   626   0.501E-03    0.630E-03
RMM:  12    -0.290423406632E+03    0.60092E-06   -0.11394E-06   477   0.203E-03
  13 F= -.29039712E+03 E0= -.29039712E+03  d E =-.321781E-13  mag=     0.0000
 Finite differences progress:
  Degree of freedom:   6/  9
  Displacement:        2/  2
  Total:              12/ 18
 bond charge predicted
       N       E                     dE             d eps       ncg     rms          rms(c)
RMM:   1    -0.290442371259E+03   -0.18964E-01   -0.47022E+00   764   0.362E+00    0.381E-01
RMM:   2    -0.290416920894E+03    0.25450E-01   -0.55072E-02   758   0.431E-01    0.327E-01
RMM:   3    -0.290416455943E+03    0.46495E-03   -0.58486E-03   916   0.932E-02    0.251E-01
RMM:   4    -0.290416447452E+03    0.84910E-05   -0.14293E-03   758   0.503E-02    0.126E-01
RMM:   5    -0.290416757994E+03   -0.31054E-03   -0.92667E-04   759   0.452E-02    0.490E-02
RMM:   6    -0.290416696720E+03    0.61274E-04   -0.91592E-05   711   0.150E-02    0.317E-02
RMM:   7    -0.290416683442E+03    0.13277E-04   -0.44832E-05   686   0.880E-03    0.207E-02
RMM:   8    -0.290416684962E+03   -0.15199E-05   -0.39328E-05   698   0.793E-03    0.856E-03
RMM:   9    -0.290416685765E+03   -0.80294E-06   -0.30208E-06   534   0.316E-03
  14 F= -.29039058E+03 E0= -.29039058E+03  d E =-.210507E-18  mag=    -0.0000
 Finite differences progress:
  Degree of freedom:   7/  9
  Displacement:        1/  2
  Total:              13/ 18
 bond charge predicted
       N       E                     dE             d eps       ncg     rms          rms(c)
RMM:   1    -0.290482535491E+03   -0.65851E-01   -0.96544E+00   772   0.474E+00    0.715E-01
RMM:   2    -0.290420727497E+03    0.61808E-01   -0.15244E-01   766   0.509E-01    0.418E-01
RMM:   3    -0.290419249313E+03    0.14782E-02   -0.14541E-02   931   0.143E-01    0.356E-01
RMM:   4    -0.290417478397E+03    0.17709E-02   -0.46449E-03   764   0.896E-02    0.241E-01
RMM:   5    -0.290418506615E+03   -0.10282E-02   -0.10702E-02   800   0.110E-01    0.222E-01
RMM:   6    -0.290417375474E+03    0.11311E-02   -0.15280E-03   734   0.554E-02    0.103E-01
RMM:   7    -0.290417284837E+03    0.90637E-04   -0.28704E-03   808   0.574E-02    0.579E-02
RMM:   8    -0.290417239661E+03    0.45175E-04   -0.13143E-04   719   0.193E-02    0.390E-02
RMM:   9    -0.290417227837E+03    0.11824E-04   -0.12512E-04   704   0.134E-02    0.109E-02
RMM:  10    -0.290417229923E+03   -0.20859E-05   -0.95590E-06   593   0.608E-03    0.350E-03
RMM:  11    -0.290417230236E+03   -0.31298E-06   -0.40954E-06   560   0.277E-03
  15 F= -.29039004E+03 E0= -.29039004E+03  d E =-.259458E-13  mag=     0.0000
 Finite differences progress:
  Degree of freedom:   7/  9
  Displacement:        2/  2
  Total:              14/ 18
 bond charge predicted
       N       E                     dE             d eps       ncg     rms          rms(c)
RMM:   1    -0.290454429179E+03   -0.37199E-01   -0.47262E+00   763   0.330E+00    0.286E-01
RMM:   2    -0.290420537738E+03    0.33891E-01   -0.50399E-02   763   0.305E-01    0.265E-01
RMM:   3    -0.290420114709E+03    0.42303E-03   -0.40254E-03   903   0.631E-02    0.247E-01
RMM:   4    -0.290419765078E+03    0.34963E-03   -0.21539E-03   761   0.602E-02    0.128E-01
RMM:   5    -0.290420598204E+03   -0.83313E-03   -0.35155E-03   759   0.734E-02    0.140E-01
RMM:   6    -0.290420111128E+03    0.48708E-03   -0.44328E-04   698   0.288E-02    0.661E-02
RMM:   7    -0.290420029553E+03    0.81575E-04   -0.32093E-04   724   0.210E-02    0.243E-02
RMM:   8    -0.290420035543E+03   -0.59900E-05   -0.20504E-05   625   0.817E-03    0.231E-02
RMM:   9    -0.290420026581E+03    0.89619E-05   -0.28181E-05   643   0.649E-03    0.128E-02
RMM:  10    -0.290420024456E+03    0.21249E-05   -0.28920E-05   663   0.597E-03    0.283E-03
RMM:  11    -0.290420024517E+03   -0.60494E-07   -0.15530E-06   452   0.219E-03
  16 F= -.29039281E+03 E0= -.29039281E+03  d E =-.133592E-12  mag=    -0.0000
 Finite differences progress:
  Degree of freedom:   8/  9
  Displacement:        1/  2
  Total:              15/ 18
 bond charge predicted
       N       E                     dE             d eps       ncg     rms          rms(c)
RMM:   1    -0.290485144607E+03   -0.65120E-01   -0.95188E+00   769   0.475E+00    0.476E-01
RMM:   2    -0.290421664177E+03    0.63480E-01   -0.11814E-01   763   0.477E-01    0.463E-01
RMM:   3    -0.290420855443E+03    0.80873E-03   -0.10989E-02   934   0.113E-01    0.410E-01
RMM:   4    -0.290419131952E+03    0.17235E-02   -0.44828E-03   766   0.858E-02    0.223E-01
RMM:   5    -0.290419280270E+03   -0.14832E-03   -0.39870E-03   768   0.837E-02    0.902E-02
RMM:   6    -0.290419253922E+03    0.26348E-04   -0.30833E-04   753   0.276E-02    0.592E-02
RMM:   7    -0.290419236644E+03    0.17278E-04   -0.11517E-04   710   0.129E-02    0.362E-02
RMM:   8    -0.290419234840E+03    0.18037E-05   -0.98254E-05   713   0.119E-02    0.153E-02
RMM:   9    -0.290419236689E+03   -0.18485E-05   -0.15686E-05   655   0.583E-03    0.642E-03
RMM:  10    -0.290419237681E+03   -0.99281E-06   -0.46315E-06   538   0.347E-03
  17 F= -.29039315E+03 E0= -.29039315E+03  d E =-.133022E-17  mag=    -0.0000
 Finite differences progress:
  Degree of freedom:   8/  9
  Displacement:        2/  2
  Total:              16/ 18
 bond charge predicted
       N       E                     dE             d eps       ncg     rms          rms(c)
RMM:   1    -0.290444916183E+03   -0.25679E-01   -0.47756E+00   770   0.328E+00    0.453E-01
RMM:   2    -0.290423219355E+03    0.21697E-01   -0.67019E-02   766   0.335E-01    0.291E-01
RMM:   3    -0.290422600940E+03    0.61841E-03   -0.77834E-03   931   0.102E-01    0.237E-01
RMM:   4    -0.290421935837E+03    0.66510E-03   -0.38894E-03   760   0.753E-02    0.151E-01
RMM:   5    -0.290422285937E+03   -0.35010E-03   -0.25168E-03   805   0.559E-02    0.134E-01
RMM:   6    -0.290421883796E+03    0.40214E-03   -0.66079E-04   708   0.329E-02    0.572E-02
RMM:   7    -0.290421872751E+03    0.11045E-04   -0.10768E-03   824   0.353E-02    0.413E-02
RMM:   8    -0.290421855208E+03    0.17543E-04   -0.55344E-05   698   0.120E-02    0.308E-02
RMM:   9    -0.290421846965E+03    0.82431E-05   -0.68308E-05   671   0.980E-03    0.844E-03
RMM:  10    -0.290421850452E+03   -0.34868E-05   -0.11979E-05   626   0.558E-03    0.261E-03
RMM:  11    -0.290421850803E+03   -0.35098E-06   -0.16455E-06   493   0.221E-03
  18 F= -.29039420E+03 E0= -.29039420E+03  d E =-.556963E-11  mag=    -0.0000
 Finite differences progress:
  Degree of freedom:   9/  9
  Displacement:        1/  2
  Total:              17/ 18
 bond charge predicted
       N       E                     dE             d eps       ncg     rms          rms(c)
RMM:   1    -0.290510589953E+03   -0.88740E-01   -0.10138E+01   760   0.487E+00    0.381E-01
RMM:   2    -0.290423214748E+03    0.87375E-01   -0.13371E-01   762   0.503E-01    0.362E-01
RMM:   3    -0.290422800154E+03    0.41459E-03   -0.12866E-02   958   0.117E-01    0.324E-01
RMM:   4    -0.290421898803E+03    0.90135E-03   -0.12560E-03   759   0.457E-02    0.247E-01
RMM:   5    -0.290421545234E+03    0.35357E-03   -0.58702E-03   765   0.998E-02    0.899E-02
RMM:   6    -0.290421574646E+03   -0.29412E-04   -0.52668E-04   754   0.318E-02    0.674E-02
RMM:   7    -0.290421470809E+03    0.10384E-03   -0.14793E-04   703   0.163E-02    0.361E-02
RMM:   8    -0.290421452352E+03    0.18457E-04   -0.10723E-04   708   0.127E-02    0.143E-02
RMM:   9    -0.290421451807E+03    0.54419E-06   -0.17644E-05   638   0.602E-03    0.713E-03
RMM:  10    -0.290421451951E+03   -0.14338E-06   -0.67143E-06   556   0.371E-03
  19 F= -.29039577E+03 E0= -.29039577E+03  d E =-.546808E-18  mag=    -0.0000
 Finite differences progress:
  Degree of freedom:   9/  9
  Displacement:        2/  2
  Total:              18/ 18
 Finite differences POTIM=  2.000000000000000E-002
 writing wavefunctions
