 running on   48 total cores
 distrk:  each k-point on   48 cores,    1 groups
 distr:  one band on   48 cores,    1 groups
 using from now: INCAR     
 vasp.5.3.5 31Mar14 (build Oct 09 2016 14:59:48) gamma-only                     
  
 POSCAR found type information on POSCAR  P  Ru C  O 
 POSCAR found :  4 types and      53 ions
 scaLAPACK will be used

 ----------------------------------------------------------------------------- 
|                                                                             |
|           W    W    AA    RRRRR   N    N  II  N    N   GGGG   !!!           |
|           W    W   A  A   R    R  NN   N  II  NN   N  G    G  !!!           |
|           W    W  A    A  R    R  N N  N  II  N N  N  G       !!!           |
|           W WW W  AAAAAA  RRRRR   N  N N  II  N  N N  G  GGG   !            |
|           WW  WW  A    A  R   R   N   NN  II  N   NN  G    G                |
|           W    W  A    A  R    R  N    N  II  N    N   GGGG   !!!           |
|                                                                             |
|      For optimal performance we recommend to set                            |
|        NCORE= 4 - approx SQRT( number of cores)                             |
|      NCORE specifies how many cores store one orbital (NPAR=cpu/NCORE).     |
|      This setting can  greatly improve the performance of VASP for DFT.     |
|      The default, NPAR=number of cores might be grossly inefficient         |
|      on modern multi-core architectures or massively parallel machines.     |
|      Do your own testing !!!!                                               |
|      Unfortunately you need to use the default for GW and RPA calculations. |
|      (for HF NCORE is supported but not extensively tested yet)             |
|                                                                             |
 ----------------------------------------------------------------------------- 

 LDA part: xc-table for Pade appr. of Perdew
 POSCAR found type information on POSCAR  P  Ru C  O 
 POSCAR found :  4 types and      53 ions
 found WAVECAR, reading the header
 POSCAR, INCAR and KPOINTS ok, starting setup
 FFT: planning ...
 reading WAVECAR
 the WAVECAR file was read successfully
 charge-density read from file: TS1_1-2                                 
 magnetization density read from file 1
 entering main loop
       N       E                     dE             d eps       ncg     rms          rms(c)
RMM:   1    -0.290458424502E+03   -0.29046E+03   -0.22666E+00   378   0.245E+00
RMM:   2    -0.290462862758E+03   -0.44383E-02   -0.11132E-01   378   0.671E-01
RMM:   3    -0.290464425593E+03   -0.15628E-02   -0.15560E-02   378   0.241E-01
RMM:   4    -0.290464908512E+03   -0.48292E-03   -0.47922E-03   378   0.128E-01
RMM:   5    -0.290465098156E+03   -0.18964E-03   -0.18791E-03   378   0.757E-02
RMM:   6    -0.290465185970E+03   -0.87814E-04   -0.85895E-04   378   0.552E-02
RMM:   7    -0.290465229085E+03   -0.43116E-04   -0.42361E-04   378   0.370E-02
RMM:   8    -0.290465252101E+03   -0.23016E-04   -0.22396E-04   376   0.286E-02
RMM:   9    -0.290465264421E+03   -0.12320E-04   -0.12098E-04   374   0.198E-02
RMM:  10    -0.290465271296E+03   -0.68748E-05   -0.67116E-05   372   0.156E-02
RMM:  11    -0.290465275108E+03   -0.38124E-05   -0.37538E-05   360   0.109E-02
RMM:  12    -0.290465277292E+03   -0.21835E-05   -0.21406E-05   346   0.867E-03
RMM:  13    -0.290465278534E+03   -0.12419E-05   -0.12263E-05   334   0.612E-03
RMM:  14    -0.290465279259E+03   -0.72551E-06   -0.71427E-06   325   0.494E-03
RMM:  15    -0.290465280256E+03   -0.99652E-06   -0.99236E-06   507   0.352E-03
RMM:  16    -0.290465280254E+03    0.19500E-08   -0.51262E-07   400   0.140E-03
RMM:  17    -0.290465280277E+03   -0.22948E-07   -0.23014E-07   350   0.105E-03
RMM:  18    -0.290465280289E+03   -0.12355E-07   -0.12263E-07   327   0.841E-04
RMM:  19    -0.290465280296E+03   -0.65556E-08   -0.65080E-08   290   0.684E-04
RMM:  20    -0.290465280299E+03   -0.33324E-08   -0.33047E-08   253   0.596E-04    0.229E-01
RMM:  21    -0.290425922718E+03    0.39358E-01   -0.50708E-03   756   0.159E-01    0.172E-01
RMM:  22    -0.290425611272E+03    0.31145E-03   -0.10875E-03   771   0.363E-02    0.122E-01
RMM:  23    -0.290425603269E+03    0.80037E-05   -0.91940E-04   751   0.390E-02    0.524E-02
RMM:  24    -0.290425613103E+03   -0.98339E-05   -0.15593E-04   711   0.206E-02    0.303E-02
RMM:  25    -0.290425609783E+03    0.33200E-05   -0.49808E-05   699   0.880E-03    0.167E-02
RMM:  26    -0.290425611129E+03   -0.13469E-05   -0.17685E-05   652   0.552E-03    0.962E-03
RMM:  27    -0.290425613820E+03   -0.26907E-05   -0.61599E-06   569   0.361E-03    0.450E-03
RMM:  28    -0.290425614175E+03   -0.35464E-06   -0.15172E-06   500   0.220E-03
   1 F= -.29039896E+03 E0= -.29039896E+03  d E =-.141060E-17  mag=     0.0000
 Finite differences POTIM= 0.02000 DOF=  12
 bond charge predicted
       N       E                     dE             d eps       ncg     rms          rms(c)
RMM:   1    -0.290418309575E+03    0.73042E-02   -0.86705E-01   758   0.140E+00    0.261E-01
RMM:   2    -0.290417902216E+03    0.40736E-03   -0.15404E-02   776   0.270E-01    0.208E-01
RMM:   3    -0.290417751624E+03    0.15059E-03   -0.23947E-03   829   0.585E-02    0.166E-01
RMM:   4    -0.290417503577E+03    0.24805E-03   -0.95727E-04   760   0.489E-02    0.607E-02
RMM:   5    -0.290417480745E+03    0.22832E-04   -0.16921E-04   761   0.200E-02    0.254E-02
RMM:   6    -0.290417464928E+03    0.15817E-04   -0.40391E-05   708   0.948E-03    0.163E-02
RMM:   7    -0.290417466800E+03   -0.18719E-05   -0.15204E-05   697   0.590E-03    0.954E-03
RMM:   8    -0.290417467275E+03   -0.47554E-06   -0.48679E-06   562   0.340E-03
   2 F= -.29039017E+03 E0= -.29039017E+03  d E =-.487502E-19  mag=     0.0000
 Finite differences progress:
  Degree of freedom:   1/ 12
  Displacement:        1/  2
  Total:               1/ 24
 bond charge predicted
       N       E                     dE             d eps       ncg     rms          rms(c)
RMM:   1    -0.290418016252E+03   -0.54945E-03   -0.34414E+00   758   0.274E+00    0.509E-01
RMM:   2    -0.290418536385E+03   -0.52013E-03   -0.61771E-02   790   0.522E-01    0.423E-01
RMM:   3    -0.290417793074E+03    0.74331E-03   -0.92650E-03   820   0.113E-01    0.326E-01
RMM:   4    -0.290416734182E+03    0.10589E-02   -0.35806E-03   760   0.960E-02    0.133E-01
RMM:   5    -0.290416604944E+03    0.12924E-03   -0.57053E-04   758   0.375E-02    0.475E-02
RMM:   6    -0.290416609208E+03   -0.42642E-05   -0.81274E-05   764   0.153E-02    0.305E-02
RMM:   7    -0.290416597244E+03    0.11964E-04   -0.63484E-05   744   0.105E-02    0.145E-02
RMM:   8    -0.290416599379E+03   -0.21345E-05   -0.14172E-05   678   0.600E-03    0.721E-03
RMM:   9    -0.290416599749E+03   -0.37082E-06   -0.37838E-06   545   0.311E-03
   3 F= -.29039058E+03 E0= -.29039058E+03  d E =-.103135E-14  mag=     0.0000
 Finite differences progress:
  Degree of freedom:   1/ 12
  Displacement:        2/  2
  Total:               2/ 24
 bond charge predicted
       N       E                     dE             d eps       ncg     rms          rms(c)
RMM:   1    -0.290418353910E+03   -0.17545E-02   -0.15693E+00   762   0.181E+00    0.273E-01
RMM:   2    -0.290417819391E+03    0.53452E-03   -0.17776E-02   776   0.245E-01    0.206E-01
RMM:   3    -0.290417916510E+03   -0.97120E-04   -0.21857E-03   865   0.590E-02    0.156E-01
RMM:   4    -0.290417929142E+03   -0.12632E-04   -0.68121E-04   765   0.383E-02    0.557E-02
RMM:   5    -0.290417923526E+03    0.56155E-05   -0.13804E-04   732   0.179E-02    0.237E-02
RMM:   6    -0.290417911110E+03    0.12417E-04   -0.16937E-05   685   0.669E-03    0.174E-02
RMM:   7    -0.290417905354E+03    0.57557E-05   -0.54561E-05   692   0.885E-03    0.777E-03
RMM:   8    -0.290417905488E+03   -0.13431E-06   -0.47952E-06   556   0.429E-03
   4 F= -.29039188E+03 E0= -.29039188E+03  d E =-.555283E-15  mag=     0.0000
 Finite differences progress:
  Degree of freedom:   2/ 12
  Displacement:        1/  2
  Total:               3/ 24
 bond charge predicted
       N       E                     dE             d eps       ncg     rms          rms(c)
RMM:   1    -0.290423846720E+03   -0.59414E-02   -0.34140E+00   761   0.275E+00    0.475E-01
RMM:   2    -0.290419381791E+03    0.44649E-02   -0.48467E-02   766   0.428E-01    0.385E-01
RMM:   3    -0.290418737380E+03    0.64441E-03   -0.68024E-03   830   0.105E-01    0.275E-01
RMM:   4    -0.290418401589E+03    0.33579E-03   -0.30216E-03   758   0.857E-02    0.953E-02
RMM:   5    -0.290418323586E+03    0.78004E-04   -0.40400E-04   771   0.314E-02    0.536E-02
RMM:   6    -0.290418279172E+03    0.44414E-04   -0.10690E-04   740   0.146E-02    0.339E-02
RMM:   7    -0.290418274370E+03    0.48022E-05   -0.11982E-04   744   0.148E-02    0.175E-02
RMM:   8    -0.290418273037E+03    0.13331E-05   -0.13094E-05   640   0.631E-03    0.808E-03
RMM:   9    -0.290418273510E+03   -0.47252E-06   -0.10802E-05   609   0.405E-03    0.386E-03
RMM:  10    -0.290418273254E+03    0.25531E-06   -0.83447E-07   500   0.198E-03
   5 F= -.29039101E+03 E0= -.29039101E+03  d E =-.626751E-18  mag=    -0.0000
 Finite differences progress:
  Degree of freedom:   2/ 12
  Displacement:        2/  2
  Total:               4/ 24
 bond charge predicted
       N       E                     dE             d eps       ncg     rms          rms(c)
RMM:   1    -0.290417998402E+03    0.27511E-03   -0.18264E+00   758   0.202E+00    0.346E-01
RMM:   2    -0.290419865275E+03   -0.18669E-02   -0.36582E-02   779   0.425E-01    0.299E-01
RMM:   3    -0.290419474922E+03    0.39035E-03   -0.52923E-03   848   0.767E-02    0.222E-01
RMM:   4    -0.290419142904E+03    0.33202E-03   -0.32516E-03   760   0.826E-02    0.715E-02
RMM:   5    -0.290419057002E+03    0.85903E-04   -0.25510E-04   746   0.257E-02    0.430E-02
RMM:   6    -0.290419014643E+03    0.42359E-04   -0.10139E-04   704   0.128E-02    0.297E-02
RMM:   7    -0.290419013119E+03    0.15239E-05   -0.35155E-05   719   0.807E-03    0.179E-02
RMM:   8    -0.290419014856E+03   -0.17366E-05   -0.11941E-05   639   0.515E-03    0.591E-03
RMM:   9    -0.290419015267E+03   -0.41092E-06   -0.10519E-06   498   0.230E-03
   6 F= -.29039381E+03 E0= -.29039381E+03  d E =-.193548E-16  mag=     0.0000
 Finite differences progress:
  Degree of freedom:   3/ 12
  Displacement:        1/  2
  Total:               5/ 24
 bond charge predicted
       N       E                     dE             d eps       ncg     rms          rms(c)
RMM:   1    -0.290421971972E+03   -0.29571E-02   -0.35140E+00   758   0.296E+00    0.429E-01
RMM:   2    -0.290419144716E+03    0.28273E-02   -0.65835E-02   786   0.607E-01    0.342E-01
RMM:   3    -0.290419361048E+03   -0.21633E-03   -0.11889E-02   857   0.126E-01    0.267E-01
RMM:   4    -0.290419079025E+03    0.28202E-03   -0.18814E-03   796   0.666E-02    0.168E-01
RMM:   5    -0.290419088328E+03   -0.93027E-05   -0.12483E-03   756   0.598E-02    0.620E-02
RMM:   6    -0.290419066181E+03    0.22147E-04   -0.10229E-04   724   0.171E-02    0.370E-02
RMM:   7    -0.290419055423E+03    0.10758E-04   -0.15309E-04   725   0.152E-02    0.215E-02
RMM:   8    -0.290419053093E+03    0.23298E-05   -0.23908E-05   686   0.892E-03    0.148E-02
RMM:   9    -0.290419051643E+03    0.14504E-05   -0.17077E-05   625   0.494E-03    0.455E-03
RMM:  10    -0.290419052194E+03   -0.55081E-06   -0.28723E-06   529   0.256E-03
   7 F= -.29039096E+03 E0= -.29039096E+03  d E =-.377453E-16  mag=    -0.0000
 Finite differences progress:
  Degree of freedom:   3/ 12
  Displacement:        2/  2
  Total:               6/ 24
 bond charge predicted
       N       E                     dE             d eps       ncg     rms          rms(c)
RMM:   1    -0.290441369026E+03   -0.22317E-01   -0.31836E+00   760   0.294E+00    0.387E-01
RMM:   2    -0.290425008768E+03    0.16360E-01   -0.54295E-02   780   0.410E-01    0.264E-01
RMM:   3    -0.290424924972E+03    0.83797E-04   -0.67777E-03   959   0.901E-02    0.228E-01
RMM:   4    -0.290424781730E+03    0.14324E-03   -0.10130E-03   755   0.384E-02    0.152E-01
RMM:   5    -0.290425273504E+03   -0.49177E-03   -0.13923E-03   768   0.474E-02    0.879E-02
RMM:   6    -0.290425076430E+03    0.19707E-03   -0.29322E-04   710   0.229E-02    0.288E-02
RMM:   7    -0.290425069251E+03    0.71794E-05   -0.13412E-04   761   0.129E-02    0.138E-02
RMM:   8    -0.290425067906E+03    0.13447E-05   -0.95335E-06   612   0.437E-03    0.101E-02
RMM:   9    -0.290425067837E+03    0.69258E-07   -0.76246E-06   577   0.398E-03
   8 F= -.29039835E+03 E0= -.29039835E+03  d E =-.243435E-16  mag=    -0.0000
 Finite differences progress:
  Degree of freedom:   4/ 12
  Displacement:        1/  2
  Total:               7/ 24
 bond charge predicted
       N       E                     dE             d eps       ncg     rms          rms(c)
RMM:   1    -0.290513877391E+03   -0.88809E-01   -0.99520E+00   764   0.490E+00    0.559E-01
RMM:   2    -0.290425048726E+03    0.88829E-01   -0.13437E-01   762   0.552E-01    0.517E-01
RMM:   3    -0.290424191436E+03    0.85729E-03   -0.18603E-02   941   0.133E-01    0.422E-01
RMM:   4    -0.290424170916E+03    0.20520E-04   -0.39049E-03   793   0.751E-02    0.231E-01
RMM:   5    -0.290425013895E+03   -0.84298E-03   -0.11092E-03   760   0.524E-02    0.108E-01
RMM:   6    -0.290424916478E+03    0.97416E-04   -0.30247E-04   732   0.283E-02    0.446E-02
RMM:   7    -0.290424913009E+03    0.34687E-05   -0.79888E-05   714   0.111E-02    0.248E-02
RMM:   8    -0.290424915467E+03   -0.24574E-05   -0.32992E-05   692   0.780E-03    0.105E-02
RMM:   9    -0.290424917088E+03   -0.16212E-05   -0.11756E-05   628   0.577E-03    0.451E-03
RMM:  10    -0.290424917252E+03   -0.16362E-06   -0.21663E-06   521   0.258E-03
   9 F= -.29039833E+03 E0= -.29039833E+03  d E =-.144190E-15  mag=    -0.0000
 Finite differences progress:
  Degree of freedom:   4/ 12
  Displacement:        2/  2
  Total:               8/ 24
 bond charge predicted
       N       E                     dE             d eps       ncg     rms          rms(c)
RMM:   1    -0.290456934149E+03   -0.32017E-01   -0.47453E+00   764   0.342E+00    0.537E-01
RMM:   2    -0.290421996543E+03    0.34938E-01   -0.68483E-02   768   0.387E-01    0.305E-01
RMM:   3    -0.290421728703E+03    0.26784E-03   -0.83942E-03   900   0.101E-01    0.258E-01
RMM:   4    -0.290421845600E+03   -0.11690E-03   -0.13261E-03   756   0.428E-02    0.172E-01
RMM:   5    -0.290422622089E+03   -0.77649E-03   -0.94854E-04   754   0.425E-02    0.853E-02
RMM:   6    -0.290422527493E+03    0.94597E-04   -0.32970E-04   714   0.239E-02    0.290E-02
RMM:   7    -0.290422544913E+03   -0.17420E-04   -0.11638E-04   750   0.124E-02    0.218E-02
RMM:   8    -0.290422549316E+03   -0.44035E-05   -0.98180E-06   602   0.506E-03    0.125E-02
RMM:   9    -0.290422551737E+03   -0.24204E-05   -0.13473E-05   614   0.566E-03    0.551E-03
RMM:  10    -0.290422551190E+03    0.54676E-06   -0.20139E-06   498   0.256E-03
  10 F= -.29039545E+03 E0= -.29039545E+03  d E =-.526439E-18  mag=     0.0000
 Finite differences progress:
  Degree of freedom:   5/ 12
  Displacement:        1/  2
  Total:               9/ 24
 bond charge predicted
       N       E                     dE             d eps       ncg     rms          rms(c)
RMM:   1    -0.290455229199E+03   -0.32677E-01   -0.85866E+00   764   0.465E+00    0.591E-01
RMM:   2    -0.290422825628E+03    0.32404E-01   -0.13381E-01   768   0.561E-01    0.593E-01
RMM:   3    -0.290421528309E+03    0.12973E-02   -0.15074E-02   968   0.133E-01    0.542E-01
RMM:   4    -0.290420214703E+03    0.13136E-02   -0.32554E-03   766   0.664E-02    0.381E-01
RMM:   5    -0.290423471072E+03   -0.32564E-02   -0.14664E-02   788   0.148E-01    0.257E-01
RMM:   6    -0.290422588166E+03    0.88291E-03   -0.10730E-03   755   0.559E-02    0.168E-01
RMM:   7    -0.290422170509E+03    0.41766E-03   -0.15487E-03   731   0.424E-02    0.524E-02
RMM:   8    -0.290422248272E+03   -0.77764E-04   -0.30042E-04   822   0.200E-02    0.248E-02
RMM:   9    -0.290422269977E+03   -0.21705E-04   -0.57353E-05   676   0.956E-03    0.275E-02
RMM:  10    -0.290422260026E+03    0.99512E-05   -0.79797E-05   694   0.109E-02    0.613E-03
RMM:  11    -0.290422262385E+03   -0.23593E-05   -0.84092E-06   554   0.444E-03    0.776E-03
RMM:  12    -0.290422261757E+03    0.62845E-06   -0.78333E-07   462   0.185E-03
  11 F= -.29039609E+03 E0= -.29039609E+03  d E =-.837167E-13  mag=    -0.0000
 Finite differences progress:
  Degree of freedom:   5/ 12
  Displacement:        2/  2
  Total:              10/ 24
 bond charge predicted
       N       E                     dE             d eps       ncg     rms          rms(c)
RMM:   1    -0.290441434298E+03   -0.19172E-01   -0.44072E+00   772   0.330E+00    0.501E-01
RMM:   2    -0.290422767910E+03    0.18666E-01   -0.58286E-02   764   0.379E-01    0.325E-01
RMM:   3    -0.290422462025E+03    0.30589E-03   -0.72213E-03   900   0.928E-02    0.274E-01
RMM:   4    -0.290422500533E+03   -0.38508E-04   -0.15425E-03   760   0.476E-02    0.172E-01
RMM:   5    -0.290423200354E+03   -0.69982E-03   -0.98749E-04   760   0.439E-02    0.796E-02
RMM:   6    -0.290423122206E+03    0.78148E-04   -0.44684E-04   711   0.262E-02    0.256E-02
RMM:   7    -0.290423127438E+03   -0.52323E-05   -0.59151E-05   734   0.104E-02    0.241E-02
RMM:   8    -0.290423139002E+03   -0.11564E-04   -0.49372E-05   660   0.910E-03    0.120E-02
RMM:   9    -0.290423140699E+03   -0.16967E-05   -0.50766E-06   549   0.379E-03    0.579E-03
RMM:  10    -0.290423140218E+03    0.48132E-06   -0.26902E-06   498   0.226E-03
  12 F= -.29039540E+03 E0= -.29039540E+03  d E =-.238497E-14  mag=    -0.0000
 Finite differences progress:
  Degree of freedom:   6/ 12
  Displacement:        1/  2
  Total:              11/ 24
 bond charge predicted
       N       E                     dE             d eps       ncg     rms          rms(c)
RMM:   1    -0.290495036767E+03   -0.71896E-01   -0.93763E+00   764   0.479E+00    0.672E-01
RMM:   2    -0.290427013115E+03    0.68024E-01   -0.14449E-01   756   0.641E-01    0.605E-01
RMM:   3    -0.290423320602E+03    0.36925E-02   -0.81291E-03   853   0.123E-01    0.436E-01
RMM:   4    -0.290423346766E+03   -0.26163E-04   -0.14601E-02   776   0.142E-01    0.212E-01
RMM:   5    -0.290423609253E+03   -0.26249E-03   -0.20930E-03   845   0.697E-02    0.199E-01
RMM:   6    -0.290422998004E+03    0.61125E-03   -0.82027E-04   751   0.389E-02    0.928E-02
RMM:   7    -0.290423118275E+03   -0.12027E-03   -0.17114E-03   774   0.425E-02    0.558E-02
RMM:   8    -0.290423053774E+03    0.64501E-04   -0.22946E-04   698   0.209E-02    0.191E-02
RMM:   9    -0.290423067865E+03   -0.14091E-04   -0.71379E-05   718   0.107E-02    0.271E-02
RMM:  10    -0.290423054503E+03    0.13363E-04   -0.48721E-05   668   0.911E-03    0.397E-03
RMM:  11    -0.290423055768E+03   -0.12649E-05   -0.68526E-06   533   0.409E-03    0.394E-03
RMM:  12    -0.290423055449E+03    0.31890E-06   -0.62424E-07   431   0.178E-03
  13 F= -.29039746E+03 E0= -.29039746E+03  d E =-.216437E-15  mag=    -0.0000
 Finite differences progress:
  Degree of freedom:   6/ 12
  Displacement:        2/  2
  Total:              12/ 24
 bond charge predicted
       N       E                     dE             d eps       ncg     rms          rms(c)
RMM:   1    -0.290455531336E+03   -0.32476E-01   -0.48646E+00   770   0.359E+00    0.475E-01
RMM:   2    -0.290423618601E+03    0.31913E-01   -0.52431E-02   756   0.385E-01    0.341E-01
RMM:   3    -0.290423370090E+03    0.24851E-03   -0.50809E-03   859   0.819E-02    0.255E-01
RMM:   4    -0.290424611532E+03   -0.12414E-02   -0.86175E-04   762   0.396E-02    0.140E-01
RMM:   5    -0.290425264923E+03   -0.65339E-03   -0.40507E-04   762   0.339E-02    0.557E-02
RMM:   6    -0.290425201566E+03    0.63357E-04   -0.11664E-04   711   0.158E-02    0.222E-02
RMM:   7    -0.290425199106E+03    0.24599E-05   -0.63105E-05   743   0.854E-03    0.182E-02
RMM:   8    -0.290425199476E+03   -0.36948E-06   -0.80237E-06   587   0.470E-03
  14 F= -.29039837E+03 E0= -.29039837E+03  d E =-.295125E-14  mag=     0.0000
 Finite differences progress:
  Degree of freedom:   7/ 12
  Displacement:        1/  2
  Total:              13/ 24
 bond charge predicted
       N       E                     dE             d eps       ncg     rms          rms(c)
RMM:   1    -0.290494172576E+03   -0.68973E-01   -0.10064E+01   760   0.469E+00    0.817E-01
RMM:   2    -0.290422554319E+03    0.71618E-01   -0.12228E-01   764   0.531E-01    0.596E-01
RMM:   3    -0.290420327101E+03    0.22272E-02   -0.96948E-03   836   0.109E-01    0.472E-01
RMM:   4    -0.290424206249E+03   -0.38791E-02   -0.92787E-03   763   0.119E-01    0.295E-01
RMM:   5    -0.290426107624E+03   -0.19014E-02   -0.23685E-03   781   0.623E-02    0.236E-01
RMM:   6    -0.290425181518E+03    0.92611E-03   -0.94364E-04   730   0.374E-02    0.119E-01
RMM:   7    -0.290425061220E+03    0.12030E-03   -0.22479E-03   756   0.515E-02    0.489E-02
RMM:   8    -0.290425034956E+03    0.26264E-04   -0.80894E-05   674   0.181E-02    0.259E-02
RMM:   9    -0.290425028918E+03    0.60373E-05   -0.72304E-05   662   0.999E-03    0.977E-03
RMM:  10    -0.290425029224E+03   -0.30526E-06   -0.12882E-05   612   0.496E-03    0.630E-03
RMM:  11    -0.290425028396E+03    0.82771E-06   -0.20176E-06   499   0.237E-03
  15 F= -.29039850E+03 E0= -.29039850E+03  d E =-.122850E-15  mag=     0.0000
 Finite differences progress:
  Degree of freedom:   7/ 12
  Displacement:        2/  2
  Total:              14/ 24
 bond charge predicted
       N       E                     dE             d eps       ncg     rms          rms(c)
RMM:   1    -0.290443606049E+03   -0.18577E-01   -0.46368E+00   765   0.343E+00    0.550E-01
RMM:   2    -0.290417902463E+03    0.25704E-01   -0.55665E-02   764   0.420E-01    0.468E-01
RMM:   3    -0.290417639848E+03    0.26262E-03   -0.76330E-03   833   0.953E-02    0.323E-01
RMM:   4    -0.290420009902E+03   -0.23701E-02   -0.21995E-03   762   0.674E-02    0.172E-01
RMM:   5    -0.290420732679E+03   -0.72278E-03   -0.59633E-04   764   0.408E-02    0.922E-02
RMM:   6    -0.290420635036E+03    0.97643E-04   -0.22595E-04   716   0.197E-02    0.439E-02
RMM:   7    -0.290420643704E+03   -0.86685E-05   -0.17944E-04   711   0.166E-02    0.167E-02
RMM:   8    -0.290420646957E+03   -0.32532E-05   -0.23090E-05   668   0.848E-03    0.129E-02
RMM:   9    -0.290420642798E+03    0.41597E-05   -0.15243E-05   621   0.470E-03    0.439E-03
RMM:  10    -0.290420642932E+03   -0.13429E-06   -0.12040E-06   495   0.221E-03
  16 F= -.29039466E+03 E0= -.29039466E+03  d E =-.748141E-12  mag=    -0.0000
 Finite differences progress:
  Degree of freedom:   8/ 12
  Displacement:        1/  2
  Total:              15/ 24
 bond charge predicted
       N       E                     dE             d eps       ncg     rms          rms(c)
RMM:   1    -0.290450322345E+03   -0.29680E-01   -0.85272E+00   772   0.467E+00    0.107E+00
RMM:   2    -0.290418407780E+03    0.31915E-01   -0.15881E-01   760   0.667E-01    0.608E-01
RMM:   3    -0.290417543031E+03    0.86475E-03   -0.18504E-02   922   0.156E-01    0.526E-01
RMM:   4    -0.290418308914E+03   -0.76588E-03   -0.60136E-03   760   0.965E-02    0.353E-01
RMM:   5    -0.290422789981E+03   -0.44811E-02   -0.81579E-03   768   0.106E-01    0.273E-01
RMM:   6    -0.290421534184E+03    0.12558E-02   -0.96151E-04   750   0.482E-02    0.169E-01
RMM:   7    -0.290420998120E+03    0.53606E-03   -0.23345E-03   758   0.493E-02    0.441E-02
RMM:   8    -0.290421015315E+03   -0.17195E-04   -0.10949E-04   765   0.164E-02    0.335E-02
RMM:   9    -0.290421007832E+03    0.74827E-05   -0.70954E-05   696   0.119E-02    0.183E-02
RMM:  10    -0.290421008274E+03   -0.44163E-06   -0.68016E-05   737   0.924E-03    0.755E-03
RMM:  11    -0.290421007802E+03    0.47129E-06   -0.44324E-06   559   0.344E-03
  17 F= -.29039369E+03 E0= -.29039369E+03  d E =-.378601E-17  mag=     0.0000
 Finite differences progress:
  Degree of freedom:   8/ 12
  Displacement:        2/  2
  Total:              16/ 24
 bond charge predicted
       N       E                     dE             d eps       ncg     rms          rms(c)
RMM:   1    -0.290435346518E+03   -0.14338E-01   -0.42083E+00   768   0.335E+00    0.530E-01
RMM:   2    -0.290422293300E+03    0.13053E-01   -0.48540E-02   762   0.380E-01    0.487E-01
RMM:   3    -0.290421576021E+03    0.71728E-03   -0.53583E-03   895   0.803E-02    0.376E-01
RMM:   4    -0.290423748582E+03   -0.21726E-02   -0.46054E-03   754   0.914E-02    0.182E-01
RMM:   5    -0.290424171080E+03   -0.42250E-03   -0.65922E-04   762   0.432E-02    0.145E-01
RMM:   6    -0.290423931402E+03    0.23968E-03   -0.15992E-04   694   0.166E-02    0.102E-01
RMM:   7    -0.290423842792E+03    0.88610E-04   -0.13319E-04   674   0.139E-02    0.648E-02
RMM:   8    -0.290423818551E+03    0.24241E-04   -0.32284E-04   712   0.215E-02    0.160E-02
RMM:   9    -0.290423823300E+03   -0.47488E-05   -0.47743E-05   671   0.102E-02    0.977E-03
RMM:  10    -0.290423822106E+03    0.11931E-05   -0.72379E-06   564   0.388E-03    0.321E-03
RMM:  11    -0.290423822137E+03   -0.30070E-07   -0.92096E-07   457   0.193E-03
  18 F= -.29039680E+03 E0= -.29039680E+03  d E =-.113331E-13  mag=     0.0000
 Finite differences progress:
  Degree of freedom:   9/ 12
  Displacement:        1/  2
  Total:              17/ 24
 bond charge predicted
       N       E                     dE             d eps       ncg     rms          rms(c)
RMM:   1    -0.290485094213E+03   -0.61272E-01   -0.92321E+00   758   0.494E+00    0.728E-01
RMM:   2    -0.290425118404E+03    0.59976E-01   -0.14018E-01   764   0.772E-01    0.545E-01
RMM:   3    -0.290422289085E+03    0.28293E-02   -0.94231E-03   851   0.116E-01    0.447E-01
RMM:   4    -0.290422296551E+03   -0.74660E-05   -0.72215E-03   760   0.100E-01    0.268E-01
RMM:   5    -0.290426001735E+03   -0.37052E-02   -0.81015E-03   764   0.112E-01    0.333E-01
RMM:   6    -0.290423722135E+03    0.22796E-02   -0.19417E-03   750   0.580E-02    0.155E-01
RMM:   7    -0.290423443263E+03    0.27887E-03   -0.81967E-04   727   0.335E-02    0.746E-02
RMM:   8    -0.290423435608E+03    0.76549E-05   -0.14875E-04   721   0.151E-02    0.503E-02
RMM:   9    -0.290423415500E+03    0.20108E-04   -0.65042E-05   709   0.101E-02    0.297E-02
RMM:  10    -0.290423405613E+03    0.98864E-05   -0.11469E-04   698   0.124E-02    0.584E-03
RMM:  11    -0.290423407184E+03   -0.15712E-05   -0.84633E-06   606   0.488E-03    0.607E-03
RMM:  12    -0.290423406646E+03    0.53819E-06   -0.11165E-06   472   0.204E-03
  19 F= -.29039712E+03 E0= -.29039712E+03  d E =-.427994E-15  mag=    -0.0000
 Finite differences progress:
  Degree of freedom:   9/ 12
  Displacement:        2/  2
  Total:              18/ 24
 bond charge predicted
       N       E                     dE             d eps       ncg     rms          rms(c)
RMM:   1    -0.290442382804E+03   -0.18976E-01   -0.47011E+00   764   0.362E+00    0.381E-01
RMM:   2    -0.290416920868E+03    0.25462E-01   -0.55078E-02   758   0.431E-01    0.327E-01
RMM:   3    -0.290416454926E+03    0.46594E-03   -0.58395E-03   915   0.932E-02    0.251E-01
RMM:   4    -0.290416449369E+03    0.55567E-05   -0.14289E-03   759   0.503E-02    0.126E-01
RMM:   5    -0.290416758247E+03   -0.30888E-03   -0.91816E-04   759   0.451E-02    0.491E-02
RMM:   6    -0.290416697217E+03    0.61030E-04   -0.90491E-05   712   0.149E-02    0.319E-02
RMM:   7    -0.290416683685E+03    0.13532E-04   -0.42983E-05   682   0.874E-03    0.213E-02
RMM:   8    -0.290416684790E+03   -0.11051E-05   -0.41965E-05   698   0.812E-03    0.863E-03
RMM:   9    -0.290416685765E+03   -0.97507E-06   -0.31257E-06   536   0.322E-03
  20 F= -.29039058E+03 E0= -.29039058E+03  d E =-.875603E-12  mag=     0.0000
 Finite differences progress:
  Degree of freedom:  10/ 12
  Displacement:        1/  2
  Total:              19/ 24
 bond charge predicted
       N       E                     dE             d eps       ncg     rms          rms(c)
RMM:   1    -0.290482512393E+03   -0.65828E-01   -0.96548E+00   772   0.474E+00    0.715E-01
RMM:   2    -0.290420717427E+03    0.61795E-01   -0.15277E-01   766   0.510E-01    0.418E-01
RMM:   3    -0.290419258131E+03    0.14593E-02   -0.14678E-02   934   0.144E-01    0.356E-01
RMM:   4    -0.290417479595E+03    0.17785E-02   -0.46643E-03   762   0.895E-02    0.241E-01
RMM:   5    -0.290418536378E+03   -0.10568E-02   -0.10934E-02   800   0.111E-01    0.225E-01
RMM:   6    -0.290417385437E+03    0.11509E-02   -0.15260E-03   734   0.553E-02    0.106E-01
RMM:   7    -0.290417286505E+03    0.98933E-04   -0.29953E-03   808   0.585E-02    0.584E-02
RMM:   8    -0.290417239382E+03    0.47123E-04   -0.13405E-04   719   0.197E-02    0.389E-02
RMM:   9    -0.290417227749E+03    0.11633E-04   -0.12455E-04   705   0.134E-02    0.111E-02
RMM:  10    -0.290417229935E+03   -0.21859E-05   -0.96300E-06   593   0.608E-03    0.355E-03
RMM:  11    -0.290417230245E+03   -0.30986E-06   -0.42200E-06   563   0.278E-03
  21 F= -.29039004E+03 E0= -.29039004E+03  d E =-.553490E-16  mag=    -0.0000
 Finite differences progress:
  Degree of freedom:  10/ 12
  Displacement:        2/  2
  Total:              20/ 24
 bond charge predicted
       N       E                     dE             d eps       ncg     rms          rms(c)
RMM:   1    -0.290454400995E+03   -0.37171E-01   -0.47274E+00   764   0.330E+00    0.285E-01
RMM:   2    -0.290420533960E+03    0.33867E-01   -0.50570E-02   762   0.306E-01    0.265E-01
RMM:   3    -0.290420118918E+03    0.41504E-03   -0.40767E-03   904   0.633E-02    0.247E-01
RMM:   4    -0.290419756404E+03    0.36251E-03   -0.20730E-03   760   0.591E-02    0.129E-01
RMM:   5    -0.290420605766E+03   -0.84936E-03   -0.36430E-03   758   0.746E-02    0.141E-01
RMM:   6    -0.290420113122E+03    0.49264E-03   -0.44425E-04   700   0.289E-02    0.667E-02
RMM:   7    -0.290420029802E+03    0.83320E-04   -0.32488E-04   722   0.211E-02    0.245E-02
RMM:   8    -0.290420035639E+03   -0.58368E-05   -0.20770E-05   621   0.822E-03    0.232E-02
RMM:   9    -0.290420026883E+03    0.87558E-05   -0.27843E-05   643   0.646E-03    0.133E-02
RMM:  10    -0.290420024461E+03    0.24222E-05   -0.30863E-05   656   0.618E-03    0.290E-03
RMM:  11    -0.290420024535E+03   -0.74229E-07   -0.16960E-06   456   0.227E-03
  22 F= -.29039281E+03 E0= -.29039281E+03  d E =-.178564E-15  mag=    -0.0000
 Finite differences progress:
  Degree of freedom:  11/ 12
  Displacement:        1/  2
  Total:              21/ 24
 bond charge predicted
       N       E                     dE             d eps       ncg     rms          rms(c)
RMM:   1    -0.290485085456E+03   -0.65061E-01   -0.95206E+00   767   0.475E+00    0.475E-01
RMM:   2    -0.290421664542E+03    0.63421E-01   -0.11832E-01   764   0.477E-01    0.463E-01
RMM:   3    -0.290420864810E+03    0.79973E-03   -0.11018E-02   934   0.113E-01    0.411E-01
RMM:   4    -0.290419136571E+03    0.17282E-02   -0.43934E-03   766   0.850E-02    0.225E-01
RMM:   5    -0.290419281526E+03   -0.14495E-03   -0.40598E-03   768   0.844E-02    0.903E-02
RMM:   6    -0.290419256221E+03    0.25305E-04   -0.31717E-04   757   0.278E-02    0.594E-02
RMM:   7    -0.290419237284E+03    0.18937E-04   -0.11401E-04   708   0.129E-02    0.365E-02
RMM:   8    -0.290419234901E+03    0.23834E-05   -0.10167E-04   711   0.120E-02    0.154E-02
RMM:   9    -0.290419236668E+03   -0.17676E-05   -0.15891E-05   655   0.592E-03    0.625E-03
RMM:  10    -0.290419237701E+03   -0.10327E-05   -0.47965E-06   544   0.348E-03    0.318E-03
RMM:  11    -0.290419237786E+03   -0.85518E-07   -0.46570E-07   473   0.182E-03
  23 F= -.29039315E+03 E0= -.29039315E+03  d E =-.478697E-12  mag=     0.0000
 Finite differences progress:
  Degree of freedom:  11/ 12
  Displacement:        2/  2
  Total:              22/ 24
 bond charge predicted
       N       E                     dE             d eps       ncg     rms          rms(c)
RMM:   1    -0.290444923214E+03   -0.25686E-01   -0.47761E+00   770   0.328E+00    0.455E-01
RMM:   2    -0.290423217422E+03    0.21706E-01   -0.67185E-02   766   0.336E-01    0.291E-01
RMM:   3    -0.290422601930E+03    0.61549E-03   -0.78112E-03   929   0.102E-01    0.237E-01
RMM:   4    -0.290421934504E+03    0.66743E-03   -0.38890E-03   760   0.753E-02    0.151E-01
RMM:   5    -0.290422289832E+03   -0.35533E-03   -0.25491E-03   806   0.562E-02    0.135E-01
RMM:   6    -0.290421885596E+03    0.40424E-03   -0.65365E-04   708   0.329E-02    0.580E-02
RMM:   7    -0.290421873205E+03    0.12391E-04   -0.11030E-03   823   0.357E-02    0.415E-02
RMM:   8    -0.290421855458E+03    0.17747E-04   -0.56025E-05   699   0.121E-02    0.310E-02
RMM:   9    -0.290421846930E+03    0.85278E-05   -0.68535E-05   672   0.984E-03    0.847E-03
RMM:  10    -0.290421850486E+03   -0.35556E-05   -0.12546E-05   629   0.565E-03    0.267E-03
RMM:  11    -0.290421850811E+03   -0.32492E-06   -0.15700E-06   488   0.219E-03
  24 F= -.29039420E+03 E0= -.29039420E+03  d E =-.241324E-14  mag=    -0.0000
 Finite differences progress:
  Degree of freedom:  12/ 12
  Displacement:        1/  2
  Total:              23/ 24
 bond charge predicted
       N       E                     dE             d eps       ncg     rms          rms(c)
RMM:   1    -0.290510628819E+03   -0.88778E-01   -0.10138E+01   760   0.487E+00    0.381E-01
RMM:   2    -0.290423215223E+03    0.87414E-01   -0.13365E-01   762   0.503E-01    0.361E-01
RMM:   3    -0.290422799584E+03    0.41564E-03   -0.12835E-02   958   0.117E-01    0.324E-01
RMM:   4    -0.290421896938E+03    0.90265E-03   -0.12564E-03   758   0.457E-02    0.247E-01
RMM:   5    -0.290421544722E+03    0.35222E-03   -0.58500E-03   765   0.996E-02    0.897E-02
RMM:   6    -0.290421575069E+03   -0.30347E-04   -0.52896E-04   756   0.319E-02    0.673E-02
RMM:   7    -0.290421470982E+03    0.10409E-03   -0.14657E-04   703   0.162E-02    0.362E-02
RMM:   8    -0.290421452320E+03    0.18661E-04   -0.10904E-04   708   0.128E-02    0.143E-02
RMM:   9    -0.290421451812E+03    0.50867E-06   -0.16763E-05   638   0.593E-03    0.723E-03
RMM:  10    -0.290421451943E+03   -0.13163E-06   -0.69317E-06   557   0.375E-03
  25 F= -.29039577E+03 E0= -.29039577E+03  d E =-.880997E-13  mag=    -0.0000
 Finite differences progress:
  Degree of freedom:  12/ 12
  Displacement:        2/  2
  Total:              24/ 24
 Finite differences POTIM=  2.000000000000000E-002
 writing wavefunctions
