<?xml version="1.0" encoding="ISO-8859-1"?>
<modeling>
 <generator>
  <i name="program" type="string">vasp </i>
  <i name="version" type="string">5.3.5  </i>
  <i name="subversion" type="string">31Mar14 (build Oct 09 2016 14:59:48) gamma-only                       parallel </i>
  <i name="platform" type="string">LinuxIFC </i>
  <i name="date" type="string">2017 08 01 </i>
  <i name="time" type="string">10:36:29 </i>
 </generator>
 <incar>
  <i type="string" name="SYSTEM"> TS1_1-2</i>
  <i type="int" name="ISTART">     1</i>
  <i type="string" name="PREC">accurate</i>
  <i type="string" name="ALGO"> VeryFast</i>
  <i type="logical" name="ADDGRID"> T  </i>
  <i type="int" name="ISPIN">     2</i>
  <i name="AMIX">      0.20000000</i>
  <i name="BMIX">      0.00001000</i>
  <i name="AMIX_MAG">      0.80000000</i>
  <i name="BMIX_MAG">      0.00001000</i>
  <i type="int" name="ICHARG">     1</i>
  <i type="int" name="NELM">   800</i>
  <i type="int" name="NELMDL">   -20</i>
  <i type="int" name="NELMIN">     6</i>
  <i type="int" name="IBRION">     5</i>
  <i type="int" name="NFREE">     2</i>
  <i name="EDIFF">      0.00000100</i>
  <i name="EDIFFG">     -0.03000000</i>
  <i type="int" name="NSW">  1000</i>
  <i type="int" name="ISIF">     2</i>
  <i type="int" name="ISYM">     0</i>
  <i name="ENCUT">    500.00000000</i>
  <i name="POTIM">      0.02000000</i>
  <i type="string" name="LREAL"> Auto</i>
  <i type="int" name="ISMEAR">     0</i>
  <i name="SIGMA">      0.05000000</i>
  <i type="logical" name="LCHARG"> T  </i>
  <i type="logical" name="LVTOT"> F  </i>
  <i type="int" name="NELM">   800</i>
  <i type="string" name="GGA"> PE</i>
  <i type="int" name="IDIPOL">     3</i>
 </incar>
 <kpoints>
  <generation param="Gamma">
   <v type="int" name="divisions">       1        1        1 </v>
   <v name="usershift">      0.00000000       0.00000000       0.00000000 </v>
   <v name="genvec1">      1.00000000       0.00000000       0.00000000 </v>
   <v name="genvec2">      0.00000000       1.00000000       0.00000000 </v>
   <v name="genvec3">      0.00000000       0.00000000       1.00000000 </v>
   <v name="shift">      0.00000000       0.00000000       0.00000000 </v>
  </generation>
  <varray name="kpointlist" >
   <v>       0.00000000       0.00000000       0.00000000 </v>
  </varray>
  <varray name="weights" >
   <v>       1.00000000 </v>
  </varray>
 </kpoints>
 <parameters>
  <separator name="general" >
   <i type="string" name="SYSTEM">TS1_1-2</i>
   <i type="logical" name="LCOMPAT"> F  </i>
  </separator>
  <separator name="electronic" >
   <i type="string" name="PREC">accura</i>
   <i name="ENMAX">    500.00000000</i>
   <i name="ENAUG">    644.87300000</i>
   <i name="EDIFF">      0.00000100</i>
   <i type="int" name="IALGO">    48</i>
   <i type="int" name="IWAVPR">    11</i>
   <i type="int" name="NBANDS">   189</i>
   <i name="NELECT">    270.00000000</i>
   <i type="int" name="TURBO">     0</i>
   <i type="int" name="IRESTART">     0</i>
   <i type="int" name="NREBOOT">     0</i>
   <i type="int" name="NMIN">     0</i>
   <i name="EREF">      0.00000000</i>
   <separator name="electronic smearing" >
    <i type="int" name="ISMEAR">     0</i>
    <i name="SIGMA">      0.05000000</i>
    <i name="KSPACING">      0.50000000</i>
    <i type="logical" name="KGAMMA"> T  </i>
   </separator>
   <separator name="electronic projectors" >
    <i type="logical" name="LREAL"> T  </i>
    <v name="ROPT">     -0.00025000     -0.00025000     -0.00025000     -0.00025000</v>
    <i type="int" name="LMAXPAW">  -100</i>
    <i type="int" name="LMAXMIX">     2</i>
    <i type="logical" name="NLSPLINE"> F  </i>
   </separator>
   <separator name="electronic startup" >
    <i type="int" name="ISTART">     1</i>
    <i type="int" name="ICHARG">     1</i>
    <i type="int" name="INIWAV">     1</i>
   </separator>
   <separator name="electronic spin" >
    <i type="int" name="ISPIN">     2</i>
    <i type="logical" name="LNONCOLLINEAR"> F  </i>
    <v name="MAGMOM">      1.00000000      1.00000000      1.00000000      1.00000000      1.00000000      1.00000000      1.00000000      1.00000000      1.00000000      1.00000000      1.00000000      1.00000000      1.00000000      1.00000000      1.00000000      1.00000000      1.00000000      1.00000000      1.00000000      1.00000000
      1.00000000      1.00000000      1.00000000      1.00000000      1.00000000      1.00000000      1.00000000      1.00000000      1.00000000      1.00000000      1.00000000      1.00000000      1.00000000      1.00000000      1.00000000      1.00000000      1.00000000      1.00000000      1.00000000      1.00000000
      1.00000000      1.00000000      1.00000000      1.00000000      1.00000000      1.00000000      1.00000000      1.00000000      1.00000000      1.00000000      1.00000000      1.00000000      1.00000000</v>
    <i name="NUPDOWN">     -1.00000000</i>
    <i type="logical" name="LSORBIT"> F  </i>
    <v name="SAXIS">      0.00000000      0.00000000      1.00000000</v>
    <i type="logical" name="LSPIRAL"> F  </i>
    <v name="QSPIRAL">      0.00000000      0.00000000      0.00000000</v>
    <i type="logical" name="LZEROZ"> F  </i>
   </separator>
   <separator name="electronic exchange-correlation" >
    <i type="logical" name="LASPH"> F  </i>
    <i type="logical" name="LMETAGGA"> F  </i>
   </separator>
   <separator name="electronic convergence" >
    <i type="int" name="NELM">   800</i>
    <i type="int" name="NELMDL">   -20</i>
    <i type="int" name="NELMIN">     6</i>
    <i name="ENINI">    500.00000000</i>
    <separator name="electronic convergence detail" >
     <i type="logical" name="LDIAG"> T  </i>
     <i type="logical" name="LSUBROT"> F  </i>
     <i name="WEIMIN">      0.00100000</i>
     <i name="EBREAK">      0.00000000</i>
     <i name="DEPER">      0.30000000</i>
     <i type="int" name="NRMM">     4</i>
     <i name="TIME">      0.40000000</i>
    </separator>
   </separator>
   <separator name="electronic mixer" >
    <i name="AMIX">      0.20000000</i>
    <i name="BMIX">      0.00001000</i>
    <i name="AMIN">      0.10000000</i>
    <i name="AMIX_MAG">      0.80000000</i>
    <i name="BMIX_MAG">      0.00001000</i>
    <separator name="electronic mixer details" >
     <i type="int" name="IMIX">     4</i>
     <i type="int" name="MAXMIX">   -45</i>
     <i name="WC">    100.00000000</i>
     <i type="int" name="INIMIX">     1</i>
     <i type="int" name="MIXPRE">     1</i>
     <i type="int" name="MREMOVE">     5</i>
    </separator>
   </separator>
   <separator name="electronic dipolcorrection" >
    <i type="logical" name="LDIPOL"> F  </i>
    <i type="logical" name="LMONO"> F  </i>
    <i type="int" name="IDIPOL">     3</i>
    <i name="EPSILON">      1.00000000</i>
    <v name="DIPOL">   -100.00000000   -100.00000000   -100.00000000</v>
    <i name="EFIELD">      0.00000000</i>
   </separator>
  </separator>
  <separator name="grids" >
   <i type="int" name="NGX">    98</i>
   <i type="int" name="NGY">    96</i>
   <i type="int" name="NGZ">   150</i>
   <i type="int" name="NGXF">   196</i>
   <i type="int" name="NGYF">   192</i>
   <i type="int" name="NGZF">   300</i>
   <i type="logical" name="ADDGRID"> T  </i>
  </separator>
  <separator name="ionic" >
   <i type="int" name="NSW">   673</i>
   <i type="int" name="IBRION">     5</i>
   <i type="int" name="ISIF">     2</i>
   <i name="PSTRESS">      0.00000000</i>
   <i name="EDIFFG">     -0.03000000</i>
   <i type="int" name="NFREE">     2</i>
   <i name="POTIM">      0.02000000</i>
   <i name="SMASS">     -3.00000000</i>
   <i name="SCALEE">      1.00000000</i>
  </separator>
  <separator name="ionic md" >
   <i name="TEBEG">      0.00010000</i>
   <i name="TEEND">      0.00010000</i>
   <i type="int" name="NBLOCK">     1</i>
   <i type="int" name="KBLOCK">     1</i>
   <i type="int" name="NPACO">   256</i>
   <i name="APACO">     16.00000000</i>
  </separator>
  <separator name="symmetry" >
   <i type="int" name="ISYM">     0</i>
   <i name="SYMPREC">      0.00001000</i>
  </separator>
  <separator name="dos" >
   <i type="logical" name="LORBIT"> F  </i>
   <v name="RWIGS">     -1.00000000     -1.00000000     -1.00000000     -1.00000000</v>
   <i type="int" name="NEDOS">   301</i>
   <i name="EMIN">     10.00000000</i>
   <i name="EMAX">    -10.00000000</i>
   <i name="EFERMI">      0.00000000</i>
  </separator>
  <separator name="writing" >
   <i type="int" name="NWRITE">     2</i>
   <i type="logical" name="LWAVE"> T  </i>
   <i type="logical" name="LCHARG"> T  </i>
   <i type="logical" name="LPARD"> F  </i>
   <i type="logical" name="LVTOT"> F  </i>
   <i type="logical" name="LVHAR"> F  </i>
   <i type="logical" name="LELF"> F  </i>
   <i type="logical" name="LOPTICS"> F  </i>
   <v name="STM">      0.00000000      0.00000000      0.00000000      0.00000000      0.00000000      0.00000000      0.00000000</v>
  </separator>
  <separator name="performance" >
   <i type="int" name="NPAR">     1</i>
   <i type="int" name="NSIM">     4</i>
   <i type="int" name="NBLK">    -1</i>
   <i type="logical" name="LPLANE"> T  </i>
   <i type="logical" name="LSCALAPACK"> T  </i>
   <i type="logical" name="LSCAAWARE"> F  </i>
   <i type="logical" name="LSCALU"> F  </i>
   <i type="logical" name="LASYNC"> F  </i>
   <i type="logical" name="LORBITALREAL"> F  </i>
  </separator>
  <separator name="miscellaneous" >
   <i type="int" name="IDIOT">     3</i>
   <i type="logical" name="LMUSIC"> F  </i>
   <v name="POMASS">     30.97400000    101.07000000     12.01100000     16.00000000</v>
   <v name="DARWINR">      0.00000000      0.00000000      0.00000000      0.00000000</v>
   <v name="DARWINV">      1.00000000      1.00000000      1.00000000      1.00000000</v>
   <i type="logical" name="LCORR"> T  </i>
  </separator>
  <i type="logical" name="GGA_COMPAT"> T  </i>
  <i type="logical" name="LBERRY"> F  </i>
  <i type="int" name="ICORELEVEL">     0</i>
  <i type="logical" name="LDAU"> F  </i>
  <i type="int" name="I_CONSTRAINED_M">     0</i>
  <separator name="electronic exchange-correlation" >
   <i type="string" name="GGA">PE</i>
   <i type="int" name="VOSKOWN">     0</i>
   <i type="logical" name="LHFCALC"> F  </i>
   <i type="string" name="PRECFOCK"></i>
   <i type="logical" name="LSYMGRAD"> F  </i>
   <i type="logical" name="LHFONE"> F  </i>
   <i type="logical" name="LRHFCALC"> F  </i>
   <i type="logical" name="LTHOMAS"> F  </i>
   <i type="logical" name="LMODELHF"> F  </i>
   <i name="ENCUT4O">     -1.00000000</i>
   <i type="int" name="EXXOEP">     0</i>
   <i type="int" name="FOURORBIT">     0</i>
   <i name="AEXX">      0.00000000</i>
   <i name="HFALPHA">      0.00000000</i>
   <i name="MCALPHA">      0.00000000</i>
   <i name="ALDAX">      1.00000000</i>
   <i name="AGGAX">      1.00000000</i>
   <i name="ALDAC">      1.00000000</i>
   <i name="AGGAC">      1.00000000</i>
   <i type="int" name="NKREDX">     1</i>
   <i type="int" name="NKREDY">     1</i>
   <i type="int" name="NKREDZ">     1</i>
   <i type="logical" name="SHIFTRED"> F  </i>
   <i type="logical" name="ODDONLY"> F  </i>
   <i type="logical" name="EVENONLY"> F  </i>
   <i type="int" name="LMAXFOCK">     0</i>
   <i type="int" name="NMAXFOCKAE">     0</i>
   <i type="logical" name="LFOCKAEDFT"> F  </i>
   <i name="HFSCREEN">      0.00000000</i>
   <i name="HFSCREENC">      0.00000000</i>
   <i type="int" name="NBANDSGWLOW">     0</i>
  </separator>
  <separator name="vdW DFT" >
   <i type="logical" name="LUSE_VDW"> F  </i>
   <i name="Zab_VDW">     -0.84910000</i>
   <i name="PARAM1">      0.12340000</i>
   <i name="PARAM2">      1.00000000</i>
   <i name="PARAM3">      0.00000000</i>
  </separator>
  <separator name="model GW" >
   <i type="int" name="MODEL_GW">     0</i>
   <i name="MODEL_EPS0">     39.39977883</i>
   <i name="MODEL_ALPHA">      1.00000000</i>
  </separator>
  <separator name="linear response parameters" >
   <i type="logical" name="LEPSILON"> F  </i>
   <i type="logical" name="LRPA"> F  </i>
   <i type="logical" name="LNABLA"> F  </i>
   <i type="logical" name="LVEL"> F  </i>
   <i type="int" name="KINTER">     0</i>
   <i name="CSHIFT">      0.10000000</i>
   <i name="OMEGAMAX">     -1.00000000</i>
   <i name="DEG_THRESHOLD">      0.00200000</i>
  </separator>
  <separator name="orbital magnetization" >
   <i type="logical" name="NUCIND"> F  </i>
   <v name="MAGPOS">      0.00000000      0.00000000      0.00000000</v>
   <i type="logical" name="LNICSALL"> T  </i>
   <i type="logical" name="ORBITALMAG"> F  </i>
   <i type="logical" name="LMAGBLOCH"> F  </i>
   <i type="logical" name="LCHIMAG"> F  </i>
   <i type="logical" name="LGAUGE"> T  </i>
   <i type="int" name="MAGATOM">     0</i>
   <v name="MAGDIPOL">      0.00000000      0.00000000      0.00000000</v>
   <v name="AVECCONST">      0.00000000      0.00000000      0.00000000</v>
  </separator>
  <separator name="response functions" >
   <i type="logical" name="LADDER"> F  </i>
   <i type="logical" name="LFXC"> F  </i>
   <i type="logical" name="LHARTREE"> T  </i>
   <i type="int" name="IBSE">     0</i>
   <i type="logical" name="LTCTE"> F  </i>
   <i type="logical" name="LTETE"> F  </i>
   <i type="logical" name="LTRIPLET"> F  </i>
   <i type="logical" name="LFXCEPS"> F  </i>
   <i type="logical" name="LFXHEG"> F  </i>
   <i type="logical" name="L2ORDER"> F  </i>
   <i type="logical" name="LUSEW"> F  </i>
   <i name="ENCUTGW">     -2.00000000</i>
   <i name="ENCUTGWSOFT">     -2.00000000</i>
   <i name="ENCUTLF">     -1.00000000</i>
   <i type="int" name="LMAXMP2">    -1</i>
   <i name="SCISSOR">      0.00000000</i>
   <i type="int" name="NOMEGA">     0</i>
   <i type="int" name="NOMEGAR">     0</i>
   <i type="int" name="NBANDSGW">    -1</i>
   <i type="int" name="NBANDSO">    -1</i>
   <i type="int" name="NBANDSV">    -1</i>
   <i type="int" name="NELM">   800</i>
   <i type="int" name="DIM">     3</i>
   <i type="int" name="ANTIRES">     0</i>
   <i name="OMEGAMAX">    -30.00000000</i>
   <i name="OMEGAMIN">    -30.00000000</i>
   <i name="OMEGATL">   -200.00000000</i>
   <i type="int" name="OMEGAGRID">     0</i>
   <i name="CSHIFT">     -0.10000000</i>
   <i type="logical" name="SELFENERGY"> F  </i>
   <i type="logical" name="LSPECTRAL"> F  </i>
   <i type="logical" name="ODDONLYGW"> F  </i>
   <i type="logical" name="EVENONLYGW"> F  </i>
   <i type="int" name="NKREDLFX">     1</i>
   <i type="int" name="NKREDLFY">     1</i>
   <i type="int" name="NKREDLFZ">     1</i>
   <i type="int" name="MAXMEM">  1800</i>
   <i type="int" name="TELESCOPE">     0</i>
   <i type="int" name="TAUPAR">     1</i>
  </separator>
  <separator name="External order field" >
   <i name="OFIELD_KAPPA">      0.00000000</i>
   <v name="OFIELD_K">      0.00000000      0.00000000      0.00000000</v>
   <i name="OFIELD_Q6_NEAR">      0.00000000</i>
   <i name="OFIELD_Q6_FAR">      0.00000000</i>
   <i name="OFIELD_A">      0.00000000</i>
  </separator>
 </parameters>
 <atominfo>
  <atoms>      53 </atoms>
  <types>       4 </types>
  <array name="atoms" >
   <dimension dim="1">ion</dimension>
   <field type="string">element</field>
   <field type="int">atomtype</field>
   <set>
    <rc><c>P </c><c>   1</c></rc>
    <rc><c>P </c><c>   1</c></rc>
    <rc><c>P </c><c>   1</c></rc>
    <rc><c>P </c><c>   1</c></rc>
    <rc><c>P </c><c>   1</c></rc>
    <rc><c>P </c><c>   1</c></rc>
    <rc><c>P </c><c>   1</c></rc>
    <rc><c>P </c><c>   1</c></rc>
    <rc><c>P </c><c>   1</c></rc>
    <rc><c>P </c><c>   1</c></rc>
    <rc><c>P </c><c>   1</c></rc>
    <rc><c>P </c><c>   1</c></rc>
    <rc><c>P </c><c>   1</c></rc>
    <rc><c>P </c><c>   1</c></rc>
    <rc><c>P </c><c>   1</c></rc>
    <rc><c>P </c><c>   1</c></rc>
    <rc><c>P </c><c>   1</c></rc>
    <rc><c>P </c><c>   1</c></rc>
    <rc><c>P </c><c>   1</c></rc>
    <rc><c>P </c><c>   1</c></rc>
    <rc><c>P </c><c>   1</c></rc>
    <rc><c>P </c><c>   1</c></rc>
    <rc><c>P </c><c>   1</c></rc>
    <rc><c>P </c><c>   1</c></rc>
    <rc><c>P </c><c>   1</c></rc>
    <rc><c>P </c><c>   1</c></rc>
    <rc><c>P </c><c>   1</c></rc>
    <rc><c>P </c><c>   1</c></rc>
    <rc><c>P </c><c>   1</c></rc>
    <rc><c>P </c><c>   1</c></rc>
    <rc><c>P </c><c>   1</c></rc>
    <rc><c>P </c><c>   1</c></rc>
    <rc><c>P </c><c>   1</c></rc>
    <rc><c>P </c><c>   1</c></rc>
    <rc><c>P </c><c>   1</c></rc>
    <rc><c>P </c><c>   1</c></rc>
    <rc><c>P </c><c>   1</c></rc>
    <rc><c>P </c><c>   1</c></rc>
    <rc><c>P </c><c>   1</c></rc>
    <rc><c>P </c><c>   1</c></rc>
    <rc><c>P </c><c>   1</c></rc>
    <rc><c>P </c><c>   1</c></rc>
    <rc><c>P </c><c>   1</c></rc>
    <rc><c>P </c><c>   1</c></rc>
    <rc><c>P </c><c>   1</c></rc>
    <rc><c>P </c><c>   1</c></rc>
    <rc><c>P </c><c>   1</c></rc>
    <rc><c>P </c><c>   1</c></rc>
    <rc><c>Ru</c><c>   2</c></rc>
    <rc><c>C </c><c>   3</c></rc>
    <rc><c>O </c><c>   4</c></rc>
    <rc><c>O </c><c>   4</c></rc>
    <rc><c>O </c><c>   4</c></rc>
   </set>
  </array>
  <array name="atomtypes" >
   <dimension dim="1">type</dimension>
   <field type="int">atomspertype</field>
   <field type="string">element</field>
   <field>mass</field>
   <field>valence</field>
   <field type="string">pseudopotential</field>
   <set>
    <rc><c>  48</c><c>P </c><c>     30.97400000</c><c>      5.00000000</c><c>  PAW_PBE P 17Jan2003                   </c></rc>
    <rc><c>   1</c><c>Ru</c><c>    101.07000000</c><c>      8.00000000</c><c> PAW_PBE Ru 06Sep2000                   </c></rc>
    <rc><c>   1</c><c>C </c><c>     12.01100000</c><c>      4.00000000</c><c> PAW_PBE C 08Apr2002                    </c></rc>
    <rc><c>   3</c><c>O </c><c>     16.00000000</c><c>      6.00000000</c><c> PAW_PBE O 08Apr2002                    </c></rc>
   </set>
  </array>
 </atominfo>
 <structure name="initialpos" >
  <crystal>
   <varray name="basis" >
    <v>      13.25440025       0.00000000       0.00000000 </v>
    <v>       0.00000000      13.12889957       0.00000000 </v>
    <v>       0.00000000       0.00000000      20.00000000 </v>
   </varray>
   <i name="volume">   3480.31379686 </i>
   <varray name="rec_basis" >
    <v>       0.07544664       0.00000000       0.00000000 </v>
    <v>       0.00000000       0.07616785       0.00000000 </v>
    <v>       0.00000000       0.00000000       0.05000000 </v>
   </varray>
  </crystal>
  <varray name="positions" >
   <v>       0.06814968       0.20884121       0.04340500 </v>
   <v>       0.19444150       0.31998867       0.04279319 </v>
   <v>       0.19117652       0.03778587       0.14613066 </v>
   <v>       0.06687114       0.15164263       0.14878858 </v>
   <v>       0.31073939       0.19793023       0.03788168 </v>
   <v>       0.44187580       0.30224125       0.02428959 </v>
   <v>       0.44091784       0.03765772       0.14604772 </v>
   <v>       0.31633189       0.15068872       0.14561152 </v>
   <v>       0.57189845       0.19615850       0.03689067 </v>
   <v>       0.68959713       0.31739026       0.04045329 </v>
   <v>       0.69080000       0.03780310       0.14637401 </v>
   <v>       0.56560409       0.15068491       0.14492893 </v>
   <v>       0.81599435       0.20660447       0.04246314 </v>
   <v>       0.94136542       0.31930885       0.04109419 </v>
   <v>       0.94117488       0.03898378       0.14770046 </v>
   <v>       0.81550560       0.15147068       0.14826558 </v>
   <v>       0.06612115       0.53772780       0.03339504 </v>
   <v>       0.19030978       0.65233619       0.03105217 </v>
   <v>       0.19534427       0.38379603       0.14841870 </v>
   <v>       0.06656714       0.49211964       0.14132027 </v>
   <v>       0.31716979       0.54149390       0.02650716 </v>
   <v>       0.44093479       0.65373667       0.02488359 </v>
   <v>       0.44107164       0.35893964       0.12859752 </v>
   <v>       0.33155585       0.48505898       0.13285997 </v>
   <v>       0.56403542       0.54011962       0.02895920 </v>
   <v>       0.69085319       0.65105738       0.03217764 </v>
   <v>       0.68779101       0.37926937       0.14584370 </v>
   <v>       0.55312339       0.48350731       0.13528701 </v>
   <v>       0.81539009       0.53698416       0.03394578 </v>
   <v>       0.94035795       0.65053621       0.03393784 </v>
   <v>       0.94127165       0.37838576       0.14560147 </v>
   <v>       0.81466783       0.49015559       0.14157854 </v>
   <v>       0.06488281       0.87231978       0.03894049 </v>
   <v>       0.18900991       0.98566868       0.03942824 </v>
   <v>       0.19167264       0.69902945       0.13871566 </v>
   <v>       0.06617929       0.81152731       0.14362618 </v>
   <v>       0.31490815       0.87397231       0.03813946 </v>
   <v>       0.44087050       0.98559545       0.03974192 </v>
   <v>       0.43770764       0.70078927       0.13453247 </v>
   <v>       0.31414240       0.81449788       0.14325138 </v>
   <v>       0.56548306       0.87256905       0.03966579 </v>
   <v>       0.69129882       0.98420095       0.04011642 </v>
   <v>       0.68971576       0.69870493       0.13950099 </v>
   <v>       0.56496385       0.81137685       0.14478713 </v>
   <v>       0.81643027       0.87198982       0.03935306 </v>
   <v>       0.94074441       0.98568113       0.04121787 </v>
   <v>       0.94049786       0.69981636       0.14109034 </v>
   <v>       0.81493057       0.81172275       0.14403458 </v>
   <v>       0.43083338       0.56841897       0.20659361 </v>
   <v>       0.34740587       0.62829019       0.27894895 </v>
   <v>       0.44173159       0.58277528       0.31830213 </v>
   <v>       0.43786799       0.47869093       0.29132254 </v>
   <v>       0.28607836       0.68076403       0.30503467 </v>
  </varray>
  <varray name="selective"  type="logical" >
   <v type="logical" >  F  F  F </v>
   <v type="logical" >  F  F  F </v>
   <v type="logical" >  F  F  F </v>
   <v type="logical" >  F  F  F </v>
   <v type="logical" >  F  F  F </v>
   <v type="logical" >  F  F  F </v>
   <v type="logical" >  F  F  F </v>
   <v type="logical" >  F  F  F </v>
   <v type="logical" >  F  F  F </v>
   <v type="logical" >  F  F  F </v>
   <v type="logical" >  F  F  F </v>
   <v type="logical" >  F  F  F </v>
   <v type="logical" >  F  F  F </v>
   <v type="logical" >  F  F  F </v>
   <v type="logical" >  F  F  F </v>
   <v type="logical" >  F  F  F </v>
   <v type="logical" >  F  F  F </v>
   <v type="logical" >  F  F  F </v>
   <v type="logical" >  F  F  F </v>
   <v type="logical" >  F  F  F </v>
   <v type="logical" >  F  F  F </v>
   <v type="logical" >  F  F  F </v>
   <v type="logical" >  F  F  F </v>
   <v type="logical" >  F  F  F </v>
   <v type="logical" >  F  F  F </v>
   <v type="logical" >  F  F  F </v>
   <v type="logical" >  F  F  F </v>
   <v type="logical" >  F  F  F </v>
   <v type="logical" >  F  F  F </v>
   <v type="logical" >  F  F  F </v>
   <v type="logical" >  F  F  F </v>
   <v type="logical" >  F  F  F </v>
   <v type="logical" >  F  F  F </v>
   <v type="logical" >  F  F  F </v>
   <v type="logical" >  F  F  F </v>
   <v type="logical" >  F  F  F </v>
   <v type="logical" >  F  F  F </v>
   <v type="logical" >  F  F  F </v>
   <v type="logical" >  F  F  F </v>
   <v type="logical" >  F  F  F </v>
   <v type="logical" >  F  F  F </v>
   <v type="logical" >  F  F  F </v>
   <v type="logical" >  F  F  F </v>
   <v type="logical" >  F  F  F </v>
   <v type="logical" >  F  F  F </v>
   <v type="logical" >  F  F  F </v>
   <v type="logical" >  F  F  F </v>
   <v type="logical" >  F  F  F </v>
   <v type="logical" >  F  F  F </v>
   <v type="logical" >  T  T  T </v>
   <v type="logical" >  T  T  T </v>
   <v type="logical" >  T  T  T </v>
   <v type="logical" >  T  T  T </v>
  </varray>
  <nose>
   <v>      -3.00000000       0.00000000       0.00010000       0.00010000 </v>
  </nose>
 </structure>
 <calculation>
  <scstep>
   <time name="diag">    1.05    1.37</time>
   <time name="diis">    2.40    2.42</time>
   <time name="orth">    0.03    0.03</time>
   <time name="total">    4.92    5.85</time>
   <energy>
    <i name="alphaZ">     89.84601993 </i>
    <i name="ewald">  26212.20268857 </i>
    <i name="hartreedc"> -35323.62596598 </i>
    <i name="XCdc">    238.28699021 </i>
    <i name="pawpsdc">   3964.93236454 </i>
    <i name="pawaedc">  -3537.24573244 </i>
    <i name="eentropy">     -0.00000000 </i>
    <i name="bandstr">  -2284.07343722 </i>
    <i name="atom">  10349.21864788 </i>
    <i name="e_fr_energy">   -290.45842450 </i>
    <i name="e_wo_entrp">   -290.45842450 </i>
    <i name="e_0_energy">   -290.45842450 </i>
   </energy>
  </scstep>
  <scstep>
   <time name="diag">    0.93    0.93</time>
   <time name="diis">    2.38    2.38</time>
   <time name="orth">    0.03    0.03</time>
   <time name="total">    3.34    3.37</time>
   <energy>
    <i name="e_fr_energy">   -290.46286276 </i>
    <i name="e_wo_entrp">   -290.46286276 </i>
    <i name="e_0_energy">   -290.46286276 </i>
   </energy>
  </scstep>
  <scstep>
   <time name="diag">    0.93    0.93</time>
   <time name="diis">    2.37    2.38</time>
   <time name="orth">    0.02    0.03</time>
   <time name="total">    3.33    3.35</time>
   <energy>
    <i name="e_fr_energy">   -290.46442559 </i>
    <i name="e_wo_entrp">   -290.46442559 </i>
    <i name="e_0_energy">   -290.46442559 </i>
   </energy>
  </scstep>
  <scstep>
   <time name="diag">    0.93    0.93</time>
   <time name="diis">    2.37    2.38</time>
   <time name="orth">    0.03    0.03</time>
   <time name="total">    3.33    3.35</time>
   <energy>
    <i name="e_fr_energy">   -290.46490851 </i>
    <i name="e_wo_entrp">   -290.46490851 </i>
    <i name="e_0_energy">   -290.46490851 </i>
   </energy>
  </scstep>
  <scstep>
   <time name="diag">    0.93    0.93</time>
   <time name="diis">    2.38    2.39</time>
   <time name="orth">    0.02    0.03</time>
   <time name="total">    3.34    3.36</time>
   <energy>
    <i name="e_fr_energy">   -290.46509816 </i>
    <i name="e_wo_entrp">   -290.46509816 </i>
    <i name="e_0_energy">   -290.46509816 </i>
   </energy>
  </scstep>
  <scstep>
   <time name="diag">    0.93    0.93</time>
   <time name="diis">    2.38    2.39</time>
   <time name="orth">    0.03    0.03</time>
   <time name="total">    3.34    3.35</time>
   <energy>
    <i name="e_fr_energy">   -290.46518597 </i>
    <i name="e_wo_entrp">   -290.46518597 </i>
    <i name="e_0_energy">   -290.46518597 </i>
   </energy>
  </scstep>
  <scstep>
   <time name="diag">    0.93    0.93</time>
   <time name="diis">    2.38    2.38</time>
   <time name="orth">    0.03    0.03</time>
   <time name="total">    3.34    3.36</time>
   <energy>
    <i name="e_fr_energy">   -290.46522909 </i>
    <i name="e_wo_entrp">   -290.46522909 </i>
    <i name="e_0_energy">   -290.46522909 </i>
   </energy>
  </scstep>
  <scstep>
   <time name="diag">    0.93    0.93</time>
   <time name="diis">    2.37    2.38</time>
   <time name="orth">    0.03    0.03</time>
   <time name="total">    3.33    3.35</time>
   <energy>
    <i name="e_fr_energy">   -290.46525210 </i>
    <i name="e_wo_entrp">   -290.46525210 </i>
    <i name="e_0_energy">   -290.46525210 </i>
   </energy>
  </scstep>
  <scstep>
   <time name="diag">    0.93    0.93</time>
   <time name="diis">    2.37    2.37</time>
   <time name="orth">    0.03    0.03</time>
   <time name="total">    3.32    4.22</time>
   <energy>
    <i name="e_fr_energy">   -290.46526442 </i>
    <i name="e_wo_entrp">   -290.46526442 </i>
    <i name="e_0_energy">   -290.46526442 </i>
   </energy>
  </scstep>
  <scstep>
   <time name="diag">    0.93    0.93</time>
   <time name="diis">    2.38    2.39</time>
   <time name="orth">    0.03    0.03</time>
   <time name="total">    3.33    3.35</time>
   <energy>
    <i name="e_fr_energy">   -290.46527130 </i>
    <i name="e_wo_entrp">   -290.46527130 </i>
    <i name="e_0_energy">   -290.46527130 </i>
   </energy>
  </scstep>
  <scstep>
   <time name="diag">    0.93    0.93</time>
   <time name="diis">    2.33    2.34</time>
   <time name="orth">    0.03    0.03</time>
   <time name="total">    3.29    3.31</time>
   <energy>
    <i name="e_fr_energy">   -290.46527511 </i>
    <i name="e_wo_entrp">   -290.46527511 </i>
    <i name="e_0_energy">   -290.46527511 </i>
   </energy>
  </scstep>
  <scstep>
   <time name="diag">    0.93    0.93</time>
   <time name="diis">    2.29    2.29</time>
   <time name="orth">    0.03    0.03</time>
   <time name="total">    3.24    3.27</time>
   <energy>
    <i name="e_fr_energy">   -290.46527729 </i>
    <i name="e_wo_entrp">   -290.46527729 </i>
    <i name="e_0_energy">   -290.46527729 </i>
   </energy>
  </scstep>
  <scstep>
   <time name="diag">    0.93    0.93</time>
   <time name="diis">    2.25    2.26</time>
   <time name="orth">    0.03    0.03</time>
   <time name="total">    3.21    3.23</time>
   <energy>
    <i name="e_fr_energy">   -290.46527853 </i>
    <i name="e_wo_entrp">   -290.46527853 </i>
    <i name="e_0_energy">   -290.46527853 </i>
   </energy>
  </scstep>
  <scstep>
   <time name="diag">    0.93    0.93</time>
   <time name="diis">    2.24    2.24</time>
   <time name="orth">    0.03    0.03</time>
   <time name="total">    3.20    3.21</time>
   <energy>
    <i name="e_fr_energy">   -290.46527926 </i>
    <i name="e_wo_entrp">   -290.46527926 </i>
    <i name="e_0_energy">   -290.46527926 </i>
   </energy>
  </scstep>
  <scstep>
   <time name="diag">    0.93    0.93</time>
   <time name="diis">    3.11    3.20</time>
   <time name="orth">    0.03    0.03</time>
   <time name="total">    4.06    4.17</time>
   <energy>
    <i name="e_fr_energy">   -290.46528026 </i>
    <i name="e_wo_entrp">   -290.46528026 </i>
    <i name="e_0_energy">   -290.46528026 </i>
   </energy>
  </scstep>
  <scstep>
   <time name="diag">    0.93    0.93</time>
   <time name="diis">    2.61    2.62</time>
   <time name="orth">    0.03    0.03</time>
   <time name="total">    3.58    3.60</time>
   <energy>
    <i name="e_fr_energy">   -290.46528025 </i>
    <i name="e_wo_entrp">   -290.46528025 </i>
    <i name="e_0_energy">   -290.46528025 </i>
   </energy>
  </scstep>
  <scstep>
   <time name="diag">    0.93    0.93</time>
   <time name="diis">    2.43    2.44</time>
   <time name="orth">    0.03    0.03</time>
   <time name="total">    3.39    3.41</time>
   <energy>
    <i name="e_fr_energy">   -290.46528028 </i>
    <i name="e_wo_entrp">   -290.46528028 </i>
    <i name="e_0_energy">   -290.46528028 </i>
   </energy>
  </scstep>
  <scstep>
   <time name="diag">    0.93    0.93</time>
   <time name="diis">    2.36    2.37</time>
   <time name="orth">    0.03    0.03</time>
   <time name="total">    3.31    3.34</time>
   <energy>
    <i name="e_fr_energy">   -290.46528029 </i>
    <i name="e_wo_entrp">   -290.46528029 </i>
    <i name="e_0_energy">   -290.46528029 </i>
   </energy>
  </scstep>
  <scstep>
   <time name="diag">    0.95    0.95</time>
   <time name="diis">    2.23    2.23</time>
   <time name="orth">    0.03    0.03</time>
   <time name="total">    3.20    3.22</time>
   <energy>
    <i name="e_fr_energy">   -290.46528030 </i>
    <i name="e_wo_entrp">   -290.46528030 </i>
    <i name="e_0_energy">   -290.46528030 </i>
   </energy>
  </scstep>
  <scstep>
   <time name="diag">    0.93    0.93</time>
   <time name="diis">    2.11    2.12</time>
   <time name="orth">    0.02    0.03</time>
   <time name="total">    4.26    4.33</time>
   <energy>
    <i name="e_fr_energy">   -290.46528030 </i>
    <i name="e_wo_entrp">   -290.46528030 </i>
    <i name="e_0_energy">   -290.46528030 </i>
   </energy>
  </scstep>
  <scstep>
   <time name="diag">    0.93    0.93</time>
   <time name="diis">    4.15    4.16</time>
   <time name="orth">    0.03    0.03</time>
   <time name="total">    7.73    8.09</time>
   <energy>
    <i name="e_fr_energy">   -290.42592272 </i>
    <i name="e_wo_entrp">   -290.42592272 </i>
    <i name="e_0_energy">   -290.42592272 </i>
   </energy>
  </scstep>
  <scstep>
   <time name="diag">    0.93    0.93</time>
   <time name="diis">    4.18    4.19</time>
   <time name="orth">    0.03    0.03</time>
   <time name="total">    7.74    7.79</time>
   <energy>
    <i name="e_fr_energy">   -290.42561127 </i>
    <i name="e_wo_entrp">   -290.42561127 </i>
    <i name="e_0_energy">   -290.42561127 </i>
   </energy>
  </scstep>
  <scstep>
   <time name="diag">    0.93    0.93</time>
   <time name="diis">    4.09    4.10</time>
   <time name="orth">    0.03    0.03</time>
   <time name="total">    7.65    7.71</time>
   <energy>
    <i name="e_fr_energy">   -290.42560327 </i>
    <i name="e_wo_entrp">   -290.42560327 </i>
    <i name="e_0_energy">   -290.42560327 </i>
   </energy>
  </scstep>
  <scstep>
   <time name="diag">    0.93    0.93</time>
   <time name="diis">    3.92    3.93</time>
   <time name="orth">    0.03    0.03</time>
   <time name="total">    7.49    7.65</time>
   <energy>
    <i name="e_fr_energy">   -290.42561310 </i>
    <i name="e_wo_entrp">   -290.42561310 </i>
    <i name="e_0_energy">   -290.42561310 </i>
   </energy>
  </scstep>
  <scstep>
   <time name="diag">    0.93    0.93</time>
   <time name="diis">    3.84    3.85</time>
   <time name="orth">    0.02    0.03</time>
   <time name="total">    7.41    7.44</time>
   <energy>
    <i name="e_fr_energy">   -290.42560978 </i>
    <i name="e_wo_entrp">   -290.42560978 </i>
    <i name="e_0_energy">   -290.42560978 </i>
   </energy>
  </scstep>
  <scstep>
   <time name="diag">    0.93    0.93</time>
   <time name="diis">    3.62    3.63</time>
   <time name="orth">    0.03    0.03</time>
   <time name="total">    7.20    7.23</time>
   <energy>
    <i name="e_fr_energy">   -290.42561113 </i>
    <i name="e_wo_entrp">   -290.42561113 </i>
    <i name="e_0_energy">   -290.42561113 </i>
   </energy>
  </scstep>
  <scstep>
   <time name="diag">    0.93    0.93</time>
   <time name="diis">    3.23    3.24</time>
   <time name="orth">    0.02    0.03</time>
   <time name="total">    6.80    6.84</time>
   <energy>
    <i name="e_fr_energy">   -290.42561382 </i>
    <i name="e_wo_entrp">   -290.42561382 </i>
    <i name="e_0_energy">   -290.42561382 </i>
   </energy>
  </scstep>
  <scstep>
   <time name="diag">    0.93    0.93</time>
   <time name="diis">    2.93    2.94</time>
   <time name="orth">    0.03    0.03</time>
   <time name="total">    5.32    5.35</time>
   <energy>
    <i name="alphaZ">     89.84601993 </i>
    <i name="ewald">  26212.20268857 </i>
    <i name="hartreedc"> -35322.41926409 </i>
    <i name="XCdc">    238.26456758 </i>
    <i name="pawpsdc">   3962.43134622 </i>
    <i name="pawaedc">  -3534.77292040 </i>
    <i name="eentropy">     -0.00000000 </i>
    <i name="bandstr">  -2285.19669987 </i>
    <i name="atom">  10349.21864788 </i>
    <i name="e_fr_energy">   -290.42561417 </i>
    <i name="e_wo_entrp">   -290.42561417 </i>
    <i name="e_0_energy">   -290.42561417 </i>
   </energy>
  </scstep>
  <dipole>
   <v name="dipole">      0.00000000       0.00000000       1.00966276 </v>
   <i name="Tr[quadrupol]">  -8608.87332205 </i>
   <i name="Echarged">      0.00000000 </i>
   <i name="Edipol_quadrupol">      0.00000000 </i>
   <i name="Eion">      0.00000000 </i>
  </dipole>
  <structure>
   <crystal>
    <varray name="basis" >
     <v>      13.25440025       0.00000000       0.00000000 </v>
     <v>       0.00000000      13.12889957       0.00000000 </v>
     <v>       0.00000000       0.00000000      20.00000000 </v>
    </varray>
    <i name="volume">   3480.31379686 </i>
    <varray name="rec_basis" >
     <v>       0.07544664       0.00000000       0.00000000 </v>
     <v>       0.00000000       0.07616785       0.00000000 </v>
     <v>       0.00000000       0.00000000       0.05000000 </v>
    </varray>
   </crystal>
   <varray name="positions" >
    <v>       0.06814968       0.20884121       0.04340500 </v>
    <v>       0.19444150       0.31998867       0.04279319 </v>
    <v>       0.19117652       0.03778587       0.14613066 </v>
    <v>       0.06687114       0.15164263       0.14878858 </v>
    <v>       0.31073939       0.19793023       0.03788168 </v>
    <v>       0.44187580       0.30224125       0.02428959 </v>
    <v>       0.44091784       0.03765772       0.14604772 </v>
    <v>       0.31633189       0.15068872       0.14561152 </v>
    <v>       0.57189845       0.19615850       0.03689067 </v>
    <v>       0.68959713       0.31739026       0.04045329 </v>
    <v>       0.69080000       0.03780310       0.14637401 </v>
    <v>       0.56560409       0.15068491       0.14492893 </v>
    <v>       0.81599435       0.20660447       0.04246314 </v>
    <v>       0.94136542       0.31930885       0.04109419 </v>
    <v>       0.94117488       0.03898378       0.14770046 </v>
    <v>       0.81550560       0.15147068       0.14826558 </v>
    <v>       0.06612115       0.53772780       0.03339504 </v>
    <v>       0.19030978       0.65233619       0.03105217 </v>
    <v>       0.19534427       0.38379603       0.14841870 </v>
    <v>       0.06656714       0.49211964       0.14132027 </v>
    <v>       0.31716979       0.54149390       0.02650716 </v>
    <v>       0.44093479       0.65373667       0.02488359 </v>
    <v>       0.44107164       0.35893964       0.12859752 </v>
    <v>       0.33155585       0.48505898       0.13285997 </v>
    <v>       0.56403542       0.54011962       0.02895920 </v>
    <v>       0.69085319       0.65105738       0.03217764 </v>
    <v>       0.68779101       0.37926937       0.14584370 </v>
    <v>       0.55312339       0.48350731       0.13528701 </v>
    <v>       0.81539009       0.53698416       0.03394578 </v>
    <v>       0.94035795       0.65053621       0.03393784 </v>
    <v>       0.94127165       0.37838576       0.14560147 </v>
    <v>       0.81466783       0.49015559       0.14157854 </v>
    <v>       0.06488281       0.87231978       0.03894049 </v>
    <v>       0.18900991       0.98566868       0.03942824 </v>
    <v>       0.19167264       0.69902945       0.13871566 </v>
    <v>       0.06617929       0.81152731       0.14362618 </v>
    <v>       0.31490815       0.87397231       0.03813946 </v>
    <v>       0.44087050       0.98559545       0.03974192 </v>
    <v>       0.43770764       0.70078927       0.13453247 </v>
    <v>       0.31414240       0.81449788       0.14325138 </v>
    <v>       0.56548306       0.87256905       0.03966579 </v>
    <v>       0.69129882       0.98420095       0.04011642 </v>
    <v>       0.68971576       0.69870493       0.13950099 </v>
    <v>       0.56496385       0.81137685       0.14478713 </v>
    <v>       0.81643027       0.87198982       0.03935306 </v>
    <v>       0.94074441       0.98568113       0.04121787 </v>
    <v>       0.94049786       0.69981636       0.14109034 </v>
    <v>       0.81493057       0.81172275       0.14403458 </v>
    <v>       0.43083338       0.56841897       0.20659361 </v>
    <v>       0.34740587       0.62829019       0.27894895 </v>
    <v>       0.44173159       0.58277528       0.31830213 </v>
    <v>       0.43786799       0.47869093       0.29132254 </v>
    <v>       0.28607836       0.68076403       0.30503467 </v>
   </varray>
  </structure>
  <varray name="forces" >
   <v>      -0.00024220       0.00084210      -0.00111254 </v>
   <v>       0.00053979      -0.00006009       0.00105223 </v>
   <v>       0.00015766      -0.00243884      -0.00145858 </v>
   <v>      -0.00167089       0.00050248       0.00075508 </v>
   <v>      -0.00068026       0.00026475       0.00003932 </v>
   <v>      -0.00131612      -0.00307634      -0.00331946 </v>
   <v>      -0.00149312       0.00031572       0.00056219 </v>
   <v>      -0.00106894      -0.00042158       0.00090970 </v>
   <v>      -0.00008198       0.00258170      -0.00179267 </v>
   <v>      -0.00163011      -0.00068190      -0.00120150 </v>
   <v>       0.00086774      -0.00128551      -0.00066353 </v>
   <v>       0.00034781       0.00084844       0.00143252 </v>
   <v>       0.00048567       0.00010770       0.00089646 </v>
   <v>      -0.00048423       0.00015485      -0.00251568 </v>
   <v>       0.00082117      -0.00107230      -0.00170045 </v>
   <v>      -0.00180930      -0.00031872      -0.00277355 </v>
   <v>      -0.00135147       0.00001123       0.00038038 </v>
   <v>      -0.00298167      -0.00329388       0.00305759 </v>
   <v>      -0.00092270       0.00037733      -0.00116937 </v>
   <v>       0.00070040       0.00024498      -0.00010164 </v>
   <v>      -0.00089307       0.00075321      -0.00055473 </v>
   <v>       0.00013666      -0.00062309       0.00024274 </v>
   <v>      -0.00237755       0.00343165       0.00116020 </v>
   <v>       0.00196007      -0.00417711       0.00110609 </v>
   <v>      -0.00096737       0.00076257       0.00180150 </v>
   <v>       0.00076462       0.00106626       0.00134679 </v>
   <v>      -0.00008250      -0.00004097      -0.00043155 </v>
   <v>      -0.00000865      -0.00188175      -0.00314358 </v>
   <v>       0.00119496       0.00012338       0.00071726 </v>
   <v>      -0.00051406      -0.00000183      -0.00097559 </v>
   <v>      -0.00015404       0.00061128       0.00233576 </v>
   <v>       0.00038199      -0.00117531      -0.00190136 </v>
   <v>      -0.00079340      -0.00061539      -0.00208012 </v>
   <v>       0.00037217       0.00079138       0.00154937 </v>
   <v>       0.00058254      -0.00163530      -0.00073386 </v>
   <v>      -0.00303741       0.00033534       0.00003433 </v>
   <v>      -0.00030840       0.00000645      -0.00130800 </v>
   <v>      -0.00043904      -0.00041393       0.00137132 </v>
   <v>       0.00063471      -0.00380264      -0.00038991 </v>
   <v>      -0.00271109       0.00196330       0.00134829 </v>
   <v>      -0.00194857      -0.00119153      -0.00244940 </v>
   <v>       0.00138740       0.00173650       0.00137426 </v>
   <v>      -0.00119960      -0.00183695      -0.00233379 </v>
   <v>       0.00182002       0.00361047       0.00100076 </v>
   <v>       0.00005540      -0.00135236      -0.00064977 </v>
   <v>      -0.00010772      -0.00166151       0.00183456 </v>
   <v>       0.00158340      -0.00032008       0.00077779 </v>
   <v>      -0.00048121       0.00191017      -0.00032716 </v>
   <v>       0.00125615       0.00405282      -0.00639640 </v>
   <v>       0.01563360      -0.00906600       0.00081510 </v>
   <v>       0.00198315       0.00652093       0.00417379 </v>
   <v>       0.00467229      -0.00853641      -0.00061470 </v>
   <v>      -0.00658270       0.01705435       0.01002350 </v>
  </varray>
  <varray name="stress" >
   <v>       6.08195600      -0.57813173       0.02787016 </v>
   <v>      -0.57813172       5.15428533       0.04080357 </v>
   <v>       0.02787017       0.04080357      -0.05644547 </v>
  </varray>
  <energy>
   <i name="e_fr_energy">   -290.39896114 </i>
   <i name="e_wo_entrp">   -290.39896114 </i>
   <i name="e_0_energy">     -0.00000000 </i>
  </energy>
  <time name="totalsc">  222.58  248.57</time>
 </calculation>
 <calculation>
  <scstep>
   <time name="diag">    0.93    0.93</time>
   <time name="diis">    4.10    4.12</time>
   <time name="orth">    0.02    0.03</time>
   <time name="total">    7.67    7.71</time>
   <energy>
    <i name="alphaZ">     89.84601993 </i>
    <i name="ewald">  26212.91871883 </i>
    <i name="hartreedc"> -35323.74800548 </i>
    <i name="XCdc">    238.25456538 </i>
    <i name="pawpsdc">   3962.42420050 </i>
    <i name="pawaedc">  -3534.76582004 </i>
    <i name="eentropy">     -0.00000000 </i>
    <i name="bandstr">  -2284.56663659 </i>
    <i name="atom">  10349.21864788 </i>
    <i name="e_fr_energy">   -290.41830958 </i>
    <i name="e_wo_entrp">   -290.41830958 </i>
    <i name="e_0_energy">   -290.41830958 </i>
   </energy>
  </scstep>
  <scstep>
   <time name="diag">    0.93    0.93</time>
   <time name="diis">    4.24    4.25</time>
   <time name="orth">    0.03    0.03</time>
   <time name="total">    7.81    8.21</time>
   <energy>
    <i name="e_fr_energy">   -290.41790222 </i>
    <i name="e_wo_entrp">   -290.41790222 </i>
    <i name="e_0_energy">   -290.41790222 </i>
   </energy>
  </scstep>
  <scstep>
   <time name="diag">    0.93    0.93</time>
   <time name="diis">    4.47    4.48</time>
   <time name="orth">    0.03    0.03</time>
   <time name="total">    8.04    8.07</time>
   <energy>
    <i name="e_fr_energy">   -290.41775162 </i>
    <i name="e_wo_entrp">   -290.41775162 </i>
    <i name="e_0_energy">   -290.41775162 </i>
   </energy>
  </scstep>
  <scstep>
   <time name="diag">    0.94    0.94</time>
   <time name="diis">    4.17    4.18</time>
   <time name="orth">    0.03    0.03</time>
   <time name="total">    7.75    7.78</time>
   <energy>
    <i name="e_fr_energy">   -290.41750358 </i>
    <i name="e_wo_entrp">   -290.41750358 </i>
    <i name="e_0_energy">   -290.41750358 </i>
   </energy>
  </scstep>
  <scstep>
   <time name="diag">    0.93    0.93</time>
   <time name="diis">    4.15    4.16</time>
   <time name="orth">    0.02    0.03</time>
   <time name="total">    7.72    7.77</time>
   <energy>
    <i name="e_fr_energy">   -290.41748075 </i>
    <i name="e_wo_entrp">   -290.41748075 </i>
    <i name="e_0_energy">   -290.41748075 </i>
   </energy>
  </scstep>
  <scstep>
   <time name="diag">    1.05    1.07</time>
   <time name="diis">    4.01    4.10</time>
   <time name="orth">    0.02    0.03</time>
   <time name="total">    7.70    7.83</time>
   <energy>
    <i name="e_fr_energy">   -290.41746493 </i>
    <i name="e_wo_entrp">   -290.41746493 </i>
    <i name="e_0_energy">   -290.41746493 </i>
   </energy>
  </scstep>
  <scstep>
   <time name="diag">    0.93    0.93</time>
   <time name="diis">    3.82    3.84</time>
   <time name="orth">    0.02    0.03</time>
   <time name="total">    7.39    7.43</time>
   <energy>
    <i name="e_fr_energy">   -290.41746680 </i>
    <i name="e_wo_entrp">   -290.41746680 </i>
    <i name="e_0_energy">   -290.41746680 </i>
   </energy>
  </scstep>
  <scstep>
   <time name="diag">    0.94    0.95</time>
   <time name="diis">    3.20    3.21</time>
   <time name="orth">    0.03    0.03</time>
   <time name="total">    5.61    5.64</time>
   <energy>
    <i name="alphaZ">     89.84601993 </i>
    <i name="ewald">  26212.91871883 </i>
    <i name="hartreedc"> -35322.74906441 </i>
    <i name="XCdc">    238.22889105 </i>
    <i name="pawpsdc">   3960.88314603 </i>
    <i name="pawaedc">  -3533.22701373 </i>
    <i name="eentropy">     -0.00000000 </i>
    <i name="bandstr">  -2285.53681284 </i>
    <i name="atom">  10349.21864788 </i>
    <i name="e_fr_energy">   -290.41746728 </i>
    <i name="e_wo_entrp">   -290.41746728 </i>
    <i name="e_0_energy">   -290.41746728 </i>
   </energy>
  </scstep>
  <dipole>
   <v name="dipole">      0.00000000       0.00000000       1.02182741 </v>
   <i name="Tr[quadrupol]">  -8609.56523266 </i>
   <i name="Echarged">      0.00000000 </i>
   <i name="Edipol_quadrupol">      0.00000000 </i>
   <i name="Eion">      0.00000000 </i>
  </dipole>
  <structure>
   <crystal>
    <varray name="basis" >
     <v>      13.25440025       0.00000000       0.00000000 </v>
     <v>       0.00000000      13.12889957       0.00000000 </v>
     <v>       0.00000000       0.00000000      20.00000000 </v>
    </varray>
    <i name="volume">   3480.31379686 </i>
    <varray name="rec_basis" >
     <v>       0.07544664       0.00000000       0.00000000 </v>
     <v>       0.00000000       0.07616785       0.00000000 </v>
     <v>       0.00000000       0.00000000       0.05000000 </v>
    </varray>
   </crystal>
   <varray name="positions" >
    <v>       0.06814968       0.20884121       0.04340500 </v>
    <v>       0.19444150       0.31998867       0.04279319 </v>
    <v>       0.19117652       0.03778587       0.14613066 </v>
    <v>       0.06687114       0.15164263       0.14878858 </v>
    <v>       0.31073939       0.19793023       0.03788168 </v>
    <v>       0.44187580       0.30224125       0.02428959 </v>
    <v>       0.44091784       0.03765772       0.14604772 </v>
    <v>       0.31633189       0.15068872       0.14561152 </v>
    <v>       0.57189845       0.19615850       0.03689067 </v>
    <v>       0.68959713       0.31739026       0.04045329 </v>
    <v>       0.69080000       0.03780310       0.14637401 </v>
    <v>       0.56560409       0.15068491       0.14492893 </v>
    <v>       0.81599435       0.20660447       0.04246314 </v>
    <v>       0.94136542       0.31930885       0.04109419 </v>
    <v>       0.94117488       0.03898378       0.14770046 </v>
    <v>       0.81550560       0.15147068       0.14826558 </v>
    <v>       0.06612115       0.53772780       0.03339504 </v>
    <v>       0.19030978       0.65233619       0.03105217 </v>
    <v>       0.19534427       0.38379603       0.14841870 </v>
    <v>       0.06656714       0.49211964       0.14132027 </v>
    <v>       0.31716979       0.54149390       0.02650716 </v>
    <v>       0.44093479       0.65373667       0.02488359 </v>
    <v>       0.44107164       0.35893964       0.12859752 </v>
    <v>       0.33155585       0.48505898       0.13285997 </v>
    <v>       0.56403542       0.54011962       0.02895920 </v>
    <v>       0.69085319       0.65105738       0.03217764 </v>
    <v>       0.68779101       0.37926937       0.14584370 </v>
    <v>       0.55312339       0.48350731       0.13528701 </v>
    <v>       0.81539009       0.53698416       0.03394578 </v>
    <v>       0.94035795       0.65053621       0.03393784 </v>
    <v>       0.94127165       0.37838576       0.14560147 </v>
    <v>       0.81466783       0.49015559       0.14157854 </v>
    <v>       0.06488281       0.87231978       0.03894049 </v>
    <v>       0.18900991       0.98566868       0.03942824 </v>
    <v>       0.19167264       0.69902945       0.13871566 </v>
    <v>       0.06617929       0.81152731       0.14362618 </v>
    <v>       0.31490815       0.87397231       0.03813946 </v>
    <v>       0.44087050       0.98559545       0.03974192 </v>
    <v>       0.43770764       0.70078927       0.13453247 </v>
    <v>       0.31414240       0.81449788       0.14325138 </v>
    <v>       0.56548306       0.87256905       0.03966579 </v>
    <v>       0.69129882       0.98420095       0.04011642 </v>
    <v>       0.68971576       0.69870493       0.13950099 </v>
    <v>       0.56496385       0.81137685       0.14478713 </v>
    <v>       0.81643027       0.87198982       0.03935306 </v>
    <v>       0.94074441       0.98568113       0.04121787 </v>
    <v>       0.94049786       0.69981636       0.14109034 </v>
    <v>       0.81493057       0.81172275       0.14403458 </v>
    <v>       0.43083338       0.56841897       0.20659361 </v>
    <v>       0.34891480       0.62829019       0.27894895 </v>
    <v>       0.44173159       0.58277528       0.31830213 </v>
    <v>       0.43786799       0.47869093       0.29132254 </v>
    <v>       0.28607836       0.68076403       0.30503467 </v>
   </varray>
  </structure>
  <varray name="forces" >
   <v>       0.00058530      -0.00105493      -0.00171240 </v>
   <v>       0.00033404      -0.00146619       0.00031211 </v>
   <v>      -0.00024740      -0.00221936      -0.00064268 </v>
   <v>      -0.00129015       0.00112877       0.00076649 </v>
   <v>      -0.00141831       0.00046753      -0.00025304 </v>
   <v>      -0.00280448      -0.00193850      -0.00475333 </v>
   <v>      -0.00147185       0.00036814       0.00073548 </v>
   <v>      -0.00151581      -0.00075550       0.00044762 </v>
   <v>      -0.00151288       0.00364420      -0.00013589 </v>
   <v>       0.00023809       0.00014685      -0.00022365 </v>
   <v>       0.00092529      -0.00083536      -0.00046399 </v>
   <v>       0.00055633      -0.00012815       0.00079752 </v>
   <v>       0.00114915       0.00035668       0.00009604 </v>
   <v>      -0.00095731      -0.00002659      -0.00307868 </v>
   <v>       0.00106286      -0.00116043      -0.00151262 </v>
   <v>      -0.00147490      -0.00028349      -0.00277489 </v>
   <v>      -0.00125089       0.00025300      -0.00015258 </v>
   <v>      -0.00345011      -0.00287374       0.00070464 </v>
   <v>      -0.00462314      -0.00088269      -0.00191473 </v>
   <v>       0.00162471       0.00098909       0.00089267 </v>
   <v>      -0.00132373       0.00205179       0.00032406 </v>
   <v>       0.00204599      -0.00092483       0.00200230 </v>
   <v>      -0.00306399       0.00483245       0.00437394 </v>
   <v>      -0.01414363       0.00904568       0.01215443 </v>
   <v>       0.00080395      -0.00161924      -0.00270450 </v>
   <v>      -0.00021137      -0.00001241       0.00156214 </v>
   <v>      -0.00628345      -0.00157564      -0.00333864 </v>
   <v>       0.03303471      -0.01918019      -0.02900667 </v>
   <v>       0.00110618       0.00017528       0.00047094 </v>
   <v>      -0.00054865      -0.00002698      -0.00130277 </v>
   <v>      -0.00087740       0.00017380       0.00217947 </v>
   <v>       0.00066251       0.00019091      -0.00267407 </v>
   <v>      -0.00125786      -0.00080446      -0.00301374 </v>
   <v>       0.00033306       0.00064107       0.00242890 </v>
   <v>       0.00346197      -0.00656828       0.00560338 </v>
   <v>      -0.00237522       0.00114590       0.00120405 </v>
   <v>       0.00130866      -0.00137846      -0.00351819 </v>
   <v>      -0.00038289      -0.00013160       0.00128638 </v>
   <v>      -0.00557770      -0.00215900      -0.01101576 </v>
   <v>      -0.00527229       0.00113348       0.00768717 </v>
   <v>      -0.00334221      -0.00078217      -0.00418186 </v>
   <v>      -0.00078815       0.00119610       0.00269647 </v>
   <v>       0.00018437      -0.00037824      -0.00298418 </v>
   <v>       0.00352123       0.00265375       0.00361448 </v>
   <v>       0.00047796      -0.00158125      -0.00112554 </v>
   <v>       0.00064690      -0.00107900       0.00152531 </v>
   <v>       0.00170960      -0.00081053       0.00053319 </v>
   <v>      -0.00040876       0.00180863       0.00011424 </v>
   <v>       0.13177206      -0.01337556      -0.12954305 </v>
   <v>      -0.83145146       0.53526572       0.55065193 </v>
   <v>      -0.03011592       0.09986750       0.03795642 </v>
   <v>       0.00198561      -0.06968710      -0.00813972 </v>
   <v>       0.73991137      -0.53183646      -0.42295463 </v>
  </varray>
  <varray name="stress" >
   <v>       5.87524337      -0.37340363       0.10534597 </v>
   <v>      -0.37340362       5.00979720      -0.03146686 </v>
   <v>       0.10534595      -0.03146686      -0.03994256 </v>
  </varray>
  <energy>
   <i name="e_fr_energy">   -290.39016812 </i>
   <i name="e_wo_entrp">   -290.39016812 </i>
   <i name="e_0_energy">     -0.00000000 </i>
  </energy>
  <time name="totalsc">   90.04   90.96</time>
 </calculation>
 <calculation>
  <scstep>
   <time name="diag">    0.93    0.93</time>
   <time name="diis">    4.09    4.11</time>
   <time name="orth">    0.03    0.03</time>
   <time name="total">    7.67    7.70</time>
   <energy>
    <i name="alphaZ">     89.84601993 </i>
    <i name="ewald">  26211.54739302 </i>
    <i name="hartreedc"> -35320.11750143 </i>
    <i name="XCdc">    238.25093409 </i>
    <i name="pawpsdc">   3960.88217970 </i>
    <i name="pawaedc">  -3533.22616859 </i>
    <i name="eentropy">     -0.00000000 </i>
    <i name="bandstr">  -2286.81952085 </i>
    <i name="atom">  10349.21864788 </i>
    <i name="e_fr_energy">   -290.41801625 </i>
    <i name="e_wo_entrp">   -290.41801625 </i>
    <i name="e_0_energy">   -290.41801625 </i>
   </energy>
  </scstep>
  <scstep>
   <time name="diag">    0.93    0.94</time>
   <time name="diis">    4.30    4.31</time>
   <time name="orth">    0.03    0.03</time>
   <time name="total">    7.88    8.16</time>
   <energy>
    <i name="e_fr_energy">   -290.41853638 </i>
    <i name="e_wo_entrp">   -290.41853638 </i>
    <i name="e_0_energy">   -290.41853638 </i>
   </energy>
  </scstep>
  <scstep>
   <time name="diag">    0.93    0.93</time>
   <time name="diis">    4.42    4.43</time>
   <time name="orth">    0.03    0.03</time>
   <time name="total">    7.99    8.03</time>
   <energy>
    <i name="e_fr_energy">   -290.41779307 </i>
    <i name="e_wo_entrp">   -290.41779307 </i>
    <i name="e_0_energy">   -290.41779307 </i>
   </energy>
  </scstep>
  <scstep>
   <time name="diag">    0.95    0.95</time>
   <time name="diis">    4.15    4.16</time>
   <time name="orth">    0.03    0.03</time>
   <time name="total">    7.74    7.78</time>
   <energy>
    <i name="e_fr_energy">   -290.41673418 </i>
    <i name="e_wo_entrp">   -290.41673418 </i>
    <i name="e_0_energy">   -290.41673418 </i>
   </energy>
  </scstep>
  <scstep>
   <time name="diag">    0.93    0.93</time>
   <time name="diis">    4.14    4.15</time>
   <time name="orth">    0.03    0.03</time>
   <time name="total">    7.71    7.76</time>
   <energy>
    <i name="e_fr_energy">   -290.41660494 </i>
    <i name="e_wo_entrp">   -290.41660494 </i>
    <i name="e_0_energy">   -290.41660494 </i>
   </energy>
  </scstep>
  <scstep>
   <time name="diag">    0.93    0.93</time>
   <time name="diis">    4.16    4.17</time>
   <time name="orth">    0.03    0.03</time>
   <time name="total">    7.74    9.80</time>
   <energy>
    <i name="e_fr_energy">   -290.41660921 </i>
    <i name="e_wo_entrp">   -290.41660921 </i>
    <i name="e_0_energy">   -290.41660921 </i>
   </energy>
  </scstep>
  <scstep>
   <time name="diag">    0.93    0.93</time>
   <time name="diis">    4.08    4.09</time>
   <time name="orth">    0.02    0.03</time>
   <time name="total">    7.65    7.68</time>
   <energy>
    <i name="e_fr_energy">   -290.41659724 </i>
    <i name="e_wo_entrp">   -290.41659724 </i>
    <i name="e_0_energy">   -290.41659724 </i>
   </energy>
  </scstep>
  <scstep>
   <time name="diag">    0.93    0.93</time>
   <time name="diis">    3.75    3.76</time>
   <time name="orth">    0.02    0.03</time>
   <time name="total">    7.32    7.36</time>
   <energy>
    <i name="e_fr_energy">   -290.41659938 </i>
    <i name="e_wo_entrp">   -290.41659938 </i>
    <i name="e_0_energy">   -290.41659938 </i>
   </energy>
  </scstep>
  <scstep>
   <time name="diag">    0.93    0.93</time>
   <time name="diis">    3.11    3.12</time>
   <time name="orth">    0.02    0.03</time>
   <time name="total">    5.50    5.53</time>
   <energy>
    <i name="alphaZ">     89.84601993 </i>
    <i name="ewald">  26211.54739302 </i>
    <i name="hartreedc"> -35322.09087313 </i>
    <i name="XCdc">    238.30191637 </i>
    <i name="pawpsdc">   3964.13714637 </i>
    <i name="pawaedc">  -3536.47739304 </i>
    <i name="eentropy">     -0.00000000 </i>
    <i name="bandstr">  -2284.89945715 </i>
    <i name="atom">  10349.21864788 </i>
    <i name="e_fr_energy">   -290.41659975 </i>
    <i name="e_wo_entrp">   -290.41659975 </i>
    <i name="e_0_energy">   -290.41659975 </i>
   </energy>
  </scstep>
  <dipole>
   <v name="dipole">      0.00000000       0.00000000       0.99768187 </v>
   <i name="Tr[quadrupol]">  -8608.18426608 </i>
   <i name="Echarged">      0.00000000 </i>
   <i name="Edipol_quadrupol">      0.00000000 </i>
   <i name="Eion">      0.00000000 </i>
  </dipole>
  <structure>
   <crystal>
    <varray name="basis" >
     <v>      13.25440025       0.00000000       0.00000000 </v>
     <v>       0.00000000      13.12889957       0.00000000 </v>
     <v>       0.00000000       0.00000000      20.00000000 </v>
    </varray>
    <i name="volume">   3480.31379686 </i>
    <varray name="rec_basis" >
     <v>       0.07544664       0.00000000       0.00000000 </v>
     <v>       0.00000000       0.07616785       0.00000000 </v>
     <v>       0.00000000       0.00000000       0.05000000 </v>
    </varray>
   </crystal>
   <varray name="positions" >
    <v>       0.06814968       0.20884121       0.04340500 </v>
    <v>       0.19444150       0.31998867       0.04279319 </v>
    <v>       0.19117652       0.03778587       0.14613066 </v>
    <v>       0.06687114       0.15164263       0.14878858 </v>
    <v>       0.31073939       0.19793023       0.03788168 </v>
    <v>       0.44187580       0.30224125       0.02428959 </v>
    <v>       0.44091784       0.03765772       0.14604772 </v>
    <v>       0.31633189       0.15068872       0.14561152 </v>
    <v>       0.57189845       0.19615850       0.03689067 </v>
    <v>       0.68959713       0.31739026       0.04045329 </v>
    <v>       0.69080000       0.03780310       0.14637401 </v>
    <v>       0.56560409       0.15068491       0.14492893 </v>
    <v>       0.81599435       0.20660447       0.04246314 </v>
    <v>       0.94136542       0.31930885       0.04109419 </v>
    <v>       0.94117488       0.03898378       0.14770046 </v>
    <v>       0.81550560       0.15147068       0.14826558 </v>
    <v>       0.06612115       0.53772780       0.03339504 </v>
    <v>       0.19030978       0.65233619       0.03105217 </v>
    <v>       0.19534427       0.38379603       0.14841870 </v>
    <v>       0.06656714       0.49211964       0.14132027 </v>
    <v>       0.31716979       0.54149390       0.02650716 </v>
    <v>       0.44093479       0.65373667       0.02488359 </v>
    <v>       0.44107164       0.35893964       0.12859752 </v>
    <v>       0.33155585       0.48505898       0.13285997 </v>
    <v>       0.56403542       0.54011962       0.02895920 </v>
    <v>       0.69085319       0.65105738       0.03217764 </v>
    <v>       0.68779101       0.37926937       0.14584370 </v>
    <v>       0.55312339       0.48350731       0.13528701 </v>
    <v>       0.81539009       0.53698416       0.03394578 </v>
    <v>       0.94035795       0.65053621       0.03393784 </v>
    <v>       0.94127165       0.37838576       0.14560147 </v>
    <v>       0.81466783       0.49015559       0.14157854 </v>
    <v>       0.06488281       0.87231978       0.03894049 </v>
    <v>       0.18900991       0.98566868       0.03942824 </v>
    <v>       0.19167264       0.69902945       0.13871566 </v>
    <v>       0.06617929       0.81152731       0.14362618 </v>
    <v>       0.31490815       0.87397231       0.03813946 </v>
    <v>       0.44087050       0.98559545       0.03974192 </v>
    <v>       0.43770764       0.70078927       0.13453247 </v>
    <v>       0.31414240       0.81449788       0.14325138 </v>
    <v>       0.56548306       0.87256905       0.03966579 </v>
    <v>       0.69129882       0.98420095       0.04011642 </v>
    <v>       0.68971576       0.69870493       0.13950099 </v>
    <v>       0.56496385       0.81137685       0.14478713 </v>
    <v>       0.81643027       0.87198982       0.03935306 </v>
    <v>       0.94074441       0.98568113       0.04121787 </v>
    <v>       0.94049786       0.69981636       0.14109034 </v>
    <v>       0.81493057       0.81172275       0.14403458 </v>
    <v>       0.43083338       0.56841897       0.20659361 </v>
    <v>       0.34589693       0.62829019       0.27894895 </v>
    <v>       0.44173159       0.58277528       0.31830213 </v>
    <v>       0.43786799       0.47869093       0.29132254 </v>
    <v>       0.28607836       0.68076403       0.30503467 </v>
   </varray>
  </structure>
  <varray name="forces" >
   <v>      -0.00092452       0.00269333      -0.00057283 </v>
   <v>       0.00081911       0.00135916       0.00168396 </v>
   <v>       0.00065795      -0.00259888      -0.00259487 </v>
   <v>      -0.00187142      -0.00006880       0.00034828 </v>
   <v>       0.00019691       0.00019224       0.00026812 </v>
   <v>       0.00035059      -0.00408288      -0.00220091 </v>
   <v>      -0.00137882       0.00024527       0.00020836 </v>
   <v>      -0.00054593       0.00001294       0.00112173 </v>
   <v>       0.00149330       0.00170593      -0.00354829 </v>
   <v>      -0.00341981      -0.00133411      -0.00235816 </v>
   <v>       0.00097295      -0.00167670      -0.00115361 </v>
   <v>       0.00031799       0.00189619       0.00180156 </v>
   <v>      -0.00003942      -0.00009068       0.00164504 </v>
   <v>       0.00014262       0.00036395      -0.00205653 </v>
   <v>       0.00077401      -0.00092930      -0.00225604 </v>
   <v>      -0.00198550      -0.00029074      -0.00310332 </v>
   <v>      -0.00123785      -0.00024595       0.00092361 </v>
   <v>      -0.00230922      -0.00369629       0.00548782 </v>
   <v>       0.00285257       0.00161899      -0.00053877 </v>
   <v>       0.00012384      -0.00037671      -0.00119655 </v>
   <v>      -0.00031038      -0.00053553      -0.00144877 </v>
   <v>      -0.00159516      -0.00028537      -0.00168681 </v>
   <v>      -0.00169160       0.00213207      -0.00176616 </v>
   <v>       0.01738749      -0.01694376      -0.00990308 </v>
   <v>      -0.00239281       0.00320918       0.00585750 </v>
   <v>       0.00188968       0.00210188       0.00094214 </v>
   <v>       0.00649157       0.00146628       0.00235205 </v>
   <v>      -0.03291699       0.01570014       0.02260174 </v>
   <v>       0.00123679       0.00005441       0.00082041 </v>
   <v>      -0.00041194       0.00018188      -0.00064889 </v>
   <v>       0.00072335       0.00103688       0.00227593 </v>
   <v>       0.00010335      -0.00248981      -0.00141464 </v>
   <v>      -0.00018324      -0.00027154      -0.00104545 </v>
   <v>       0.00046803       0.00112761       0.00069737 </v>
   <v>      -0.00184604       0.00319225      -0.00687854 </v>
   <v>      -0.00348282      -0.00036196      -0.00143379 </v>
   <v>      -0.00184061       0.00145108       0.00091734 </v>
   <v>      -0.00031079      -0.00062854       0.00140382 </v>
   <v>       0.00677440      -0.00506901       0.01037995 </v>
   <v>      -0.00006739       0.00272380      -0.00484283 </v>
   <v>      -0.00032079      -0.00146403      -0.00083223 </v>
   <v>       0.00373931       0.00237623      -0.00005077 </v>
   <v>      -0.00245528      -0.00323641      -0.00192169 </v>
   <v>       0.00019653       0.00474157      -0.00166062 </v>
   <v>      -0.00027100      -0.00103318      -0.00022652 </v>
   <v>      -0.00075598      -0.00203661       0.00210878 </v>
   <v>       0.00162680       0.00032636       0.00075028 </v>
   <v>      -0.00038236       0.00207328      -0.00102246 </v>
   <v>      -0.12467309       0.01580688       0.10848357 </v>
   <v>       0.89452360      -0.61957979      -0.58944216 </v>
   <v>       0.03892213      -0.08883590      -0.02767255 </v>
   <v>       0.00809858       0.05256552       0.00602987 </v>
   <v>      -0.80126272       0.63580716       0.49636861 </v>
  </varray>
  <varray name="stress" >
   <v>       6.30269053      -0.80356261      -0.05961802 </v>
   <v>      -0.80356261       5.33037175       0.13281090 </v>
   <v>      -0.05961801       0.13281096      -0.05057814 </v>
  </varray>
  <energy>
   <i name="e_fr_energy">   -290.39057550 </i>
   <i name="e_wo_entrp">   -290.39057550 </i>
   <i name="e_0_energy">     -0.00000000 </i>
  </energy>
  <time name="totalsc">   97.62  100.33</time>
 </calculation>
 <calculation>
  <scstep>
   <time name="diag">    0.93    0.93</time>
   <time name="diis">    4.13    4.14</time>
   <time name="orth">    0.03    0.03</time>
   <time name="total">    7.71    7.73</time>
   <energy>
    <i name="alphaZ">     89.84601993 </i>
    <i name="ewald">  26212.12297738 </i>
    <i name="hartreedc"> -35322.61869261 </i>
    <i name="XCdc">    238.31125383 </i>
    <i name="pawpsdc">   3964.14513069 </i>
    <i name="pawaedc">  -3536.48538591 </i>
    <i name="eentropy">     -0.00000000 </i>
    <i name="bandstr">  -2284.95830510 </i>
    <i name="atom">  10349.21864788 </i>
    <i name="e_fr_energy">   -290.41835391 </i>
    <i name="e_wo_entrp">   -290.41835391 </i>
    <i name="e_0_energy">   -290.41835391 </i>
   </energy>
  </scstep>
  <scstep>
   <time name="diag">    0.93    0.93</time>
   <time name="diis">    4.23    4.24</time>
   <time name="orth">    0.02    0.03</time>
   <time name="total">    7.79    7.83</time>
   <energy>
    <i name="e_fr_energy">   -290.41781939 </i>
    <i name="e_wo_entrp">   -290.41781939 </i>
    <i name="e_0_energy">   -290.41781939 </i>
   </energy>
  </scstep>
  <scstep>
   <time name="diag">    0.93    0.93</time>
   <time name="diis">    4.64    4.65</time>
   <time name="orth">    0.03    0.03</time>
   <time name="total">    8.21    8.34</time>
   <energy>
    <i name="e_fr_energy">   -290.41791651 </i>
    <i name="e_wo_entrp">   -290.41791651 </i>
    <i name="e_0_energy">   -290.41791651 </i>
   </energy>
  </scstep>
  <scstep>
   <time name="diag">    0.93    0.93</time>
   <time name="diis">    4.18    4.19</time>
   <time name="orth">    0.02    0.03</time>
   <time name="total">    7.74    7.78</time>
   <energy>
    <i name="e_fr_energy">   -290.41792914 </i>
    <i name="e_wo_entrp">   -290.41792914 </i>
    <i name="e_0_energy">   -290.41792914 </i>
   </energy>
  </scstep>
  <scstep>
   <time name="diag">    0.93    0.93</time>
   <time name="diis">    4.00    4.01</time>
   <time name="orth">    0.03    0.03</time>
   <time name="total">    7.57    7.60</time>
   <energy>
    <i name="e_fr_energy">   -290.41792353 </i>
    <i name="e_wo_entrp">   -290.41792353 </i>
    <i name="e_0_energy">   -290.41792353 </i>
   </energy>
  </scstep>
  <scstep>
   <time name="diag">    0.93    0.93</time>
   <time name="diis">    3.81    3.82</time>
   <time name="orth">    0.03    0.03</time>
   <time name="total">    7.38    7.41</time>
   <energy>
    <i name="e_fr_energy">   -290.41791111 </i>
    <i name="e_wo_entrp">   -290.41791111 </i>
    <i name="e_0_energy">   -290.41791111 </i>
   </energy>
  </scstep>
  <scstep>
   <time name="diag">    1.01    1.02</time>
   <time name="diis">    3.84    3.85</time>
   <time name="orth">    0.03    0.03</time>
   <time name="total">    7.52    7.71</time>
   <energy>
    <i name="e_fr_energy">   -290.41790535 </i>
    <i name="e_wo_entrp">   -290.41790535 </i>
    <i name="e_0_energy">   -290.41790535 </i>
   </energy>
  </scstep>
  <scstep>
   <time name="diag">    0.93    0.93</time>
   <time name="diis">    3.18    3.18</time>
   <time name="orth">    0.02    0.03</time>
   <time name="total">    5.56    5.59</time>
   <energy>
    <i name="alphaZ">     89.84601993 </i>
    <i name="ewald">  26212.12297738 </i>
    <i name="hartreedc"> -35322.55557479 </i>
    <i name="XCdc">    238.30856708 </i>
    <i name="pawpsdc">   3964.36020084 </i>
    <i name="pawaedc">  -3536.70338027 </i>
    <i name="eentropy">     -0.00000000 </i>
    <i name="bandstr">  -2285.01536353 </i>
    <i name="atom">  10349.21864788 </i>
    <i name="e_fr_energy">   -290.41790549 </i>
    <i name="e_wo_entrp">   -290.41790549 </i>
    <i name="e_0_energy">   -290.41790549 </i>
   </energy>
  </scstep>
  <dipole>
   <v name="dipole">      0.00000000       0.00000000       0.99769562 </v>
   <i name="Tr[quadrupol]">  -8608.14081108 </i>
   <i name="Echarged">      0.00000000 </i>
   <i name="Edipol_quadrupol">      0.00000000 </i>
   <i name="Eion">      0.00000000 </i>
  </dipole>
  <structure>
   <crystal>
    <varray name="basis" >
     <v>      13.25440025       0.00000000       0.00000000 </v>
     <v>       0.00000000      13.12889957       0.00000000 </v>
     <v>       0.00000000       0.00000000      20.00000000 </v>
    </varray>
    <i name="volume">   3480.31379686 </i>
    <varray name="rec_basis" >
     <v>       0.07544664       0.00000000       0.00000000 </v>
     <v>       0.00000000       0.07616785       0.00000000 </v>
     <v>       0.00000000       0.00000000       0.05000000 </v>
    </varray>
   </crystal>
   <varray name="positions" >
    <v>       0.06814968       0.20884121       0.04340500 </v>
    <v>       0.19444150       0.31998867       0.04279319 </v>
    <v>       0.19117652       0.03778587       0.14613066 </v>
    <v>       0.06687114       0.15164263       0.14878858 </v>
    <v>       0.31073939       0.19793023       0.03788168 </v>
    <v>       0.44187580       0.30224125       0.02428959 </v>
    <v>       0.44091784       0.03765772       0.14604772 </v>
    <v>       0.31633189       0.15068872       0.14561152 </v>
    <v>       0.57189845       0.19615850       0.03689067 </v>
    <v>       0.68959713       0.31739026       0.04045329 </v>
    <v>       0.69080000       0.03780310       0.14637401 </v>
    <v>       0.56560409       0.15068491       0.14492893 </v>
    <v>       0.81599435       0.20660447       0.04246314 </v>
    <v>       0.94136542       0.31930885       0.04109419 </v>
    <v>       0.94117488       0.03898378       0.14770046 </v>
    <v>       0.81550560       0.15147068       0.14826558 </v>
    <v>       0.06612115       0.53772780       0.03339504 </v>
    <v>       0.19030978       0.65233619       0.03105217 </v>
    <v>       0.19534427       0.38379603       0.14841870 </v>
    <v>       0.06656714       0.49211964       0.14132027 </v>
    <v>       0.31716979       0.54149390       0.02650716 </v>
    <v>       0.44093479       0.65373667       0.02488359 </v>
    <v>       0.44107164       0.35893964       0.12859752 </v>
    <v>       0.33155585       0.48505898       0.13285997 </v>
    <v>       0.56403542       0.54011962       0.02895920 </v>
    <v>       0.69085319       0.65105738       0.03217764 </v>
    <v>       0.68779101       0.37926937       0.14584370 </v>
    <v>       0.55312339       0.48350731       0.13528701 </v>
    <v>       0.81539009       0.53698416       0.03394578 </v>
    <v>       0.94035795       0.65053621       0.03393784 </v>
    <v>       0.94127165       0.37838576       0.14560147 </v>
    <v>       0.81466783       0.49015559       0.14157854 </v>
    <v>       0.06488281       0.87231978       0.03894049 </v>
    <v>       0.18900991       0.98566868       0.03942824 </v>
    <v>       0.19167264       0.69902945       0.13871566 </v>
    <v>       0.06617929       0.81152731       0.14362618 </v>
    <v>       0.31490815       0.87397231       0.03813946 </v>
    <v>       0.44087050       0.98559545       0.03974192 </v>
    <v>       0.43770764       0.70078927       0.13453247 </v>
    <v>       0.31414240       0.81449788       0.14325138 </v>
    <v>       0.56548306       0.87256905       0.03966579 </v>
    <v>       0.69129882       0.98420095       0.04011642 </v>
    <v>       0.68971576       0.69870493       0.13950099 </v>
    <v>       0.56496385       0.81137685       0.14478713 </v>
    <v>       0.81643027       0.87198982       0.03935306 </v>
    <v>       0.94074441       0.98568113       0.04121787 </v>
    <v>       0.94049786       0.69981636       0.14109034 </v>
    <v>       0.81493057       0.81172275       0.14403458 </v>
    <v>       0.43083338       0.56841897       0.20659361 </v>
    <v>       0.34740587       0.62981355       0.27894895 </v>
    <v>       0.44173159       0.58277528       0.31830213 </v>
    <v>       0.43786799       0.47869093       0.29132254 </v>
    <v>       0.28607836       0.68076403       0.30503467 </v>
   </varray>
  </structure>
  <varray name="forces" >
   <v>      -0.00025543      -0.00015102      -0.00250899 </v>
   <v>      -0.00051320      -0.00111934       0.00259866 </v>
   <v>       0.00059434      -0.00251820      -0.00242589 </v>
   <v>      -0.00163741       0.00073410       0.00078853 </v>
   <v>      -0.00127472       0.00017035      -0.00062270 </v>
   <v>      -0.00223914      -0.00396841      -0.00228985 </v>
   <v>      -0.00141403       0.00032517      -0.00010048 </v>
   <v>      -0.00080100       0.00028199       0.00128918 </v>
   <v>       0.00069828       0.00250208      -0.00200454 </v>
   <v>      -0.00094507      -0.00120965      -0.00015798 </v>
   <v>       0.00089775      -0.00153331      -0.00127324 </v>
   <v>       0.00021477       0.00145433       0.00213654 </v>
   <v>       0.00062546      -0.00065185       0.00060231 </v>
   <v>      -0.00025414      -0.00005501      -0.00179318 </v>
   <v>       0.00081535      -0.00109102      -0.00212978 </v>
   <v>      -0.00191569      -0.00029706      -0.00289224 </v>
   <v>      -0.00146764      -0.00012895       0.00090990 </v>
   <v>      -0.00228898      -0.00414387       0.00475173 </v>
   <v>      -0.00015959       0.00013299      -0.00466081 </v>
   <v>       0.00088069      -0.00140875      -0.00063329 </v>
   <v>      -0.00071687      -0.00136960      -0.00113073 </v>
   <v>      -0.00147247      -0.00006199      -0.00164977 </v>
   <v>      -0.00072993       0.00189022      -0.00129827 </v>
   <v>       0.00125212      -0.00325061       0.00746278 </v>
   <v>      -0.00317246       0.00392430       0.00743576 </v>
   <v>       0.00190663       0.00161834       0.00133080 </v>
   <v>       0.00056495      -0.00161030      -0.00283651 </v>
   <v>      -0.01751857      -0.00377676       0.01483892 </v>
   <v>       0.00132607      -0.00001178       0.00103729 </v>
   <v>      -0.00052241       0.00028657      -0.00110313 </v>
   <v>      -0.00033012       0.00151071       0.00180658 </v>
   <v>      -0.00008141      -0.00234579      -0.00182404 </v>
   <v>      -0.00089791      -0.00056654      -0.00138642 </v>
   <v>       0.00046112       0.00071653       0.00167961 </v>
   <v>      -0.00195582       0.00082917      -0.00325271 </v>
   <v>      -0.00367913       0.00055533      -0.00125157 </v>
   <v>       0.00002846       0.00102056      -0.00025820 </v>
   <v>      -0.00027659      -0.00033997       0.00108016 </v>
   <v>       0.01255848      -0.01445987      -0.00379834 </v>
   <v>      -0.00259333       0.00199281      -0.00097593 </v>
   <v>      -0.00111110      -0.00151877      -0.00112619 </v>
   <v>       0.00262020       0.00223519       0.00058140 </v>
   <v>      -0.00269342      -0.00318894      -0.00337165 </v>
   <v>       0.00170738       0.00496813       0.00053807 </v>
   <v>      -0.00022428      -0.00158384      -0.00046763 </v>
   <v>      -0.00097769      -0.00151946       0.00176583 </v>
   <v>       0.00155517      -0.00023510       0.00094561 </v>
   <v>      -0.00004604       0.00199777      -0.00010013 </v>
   <v>      -0.01879663       0.12449622       0.05753197 </v>
   <v>       0.61481739      -0.76704728      -0.53671985 </v>
   <v>       0.11037158      -0.00813704       0.03691338 </v>
   <v>      -0.05453879       0.06352129      -0.00139243 </v>
   <v>      -0.62639520       0.61213595       0.43941147 </v>
  </varray>
  <varray name="stress" >
   <v>       6.32274048      -0.71669349      -0.05534571 </v>
   <v>      -0.71669351       5.23928709       0.12290103 </v>
   <v>      -0.05534569       0.12290103      -0.01671209 </v>
  </varray>
  <energy>
   <i name="e_fr_energy">   -290.39188052 </i>
   <i name="e_wo_entrp">   -290.39188052 </i>
   <i name="e_0_energy">     -0.00000000 </i>
  </energy>
  <time name="totalsc">   91.37   91.98</time>
 </calculation>
 <calculation>
  <scstep>
   <time name="diag">    0.93    0.93</time>
   <time name="diis">    4.11    4.12</time>
   <time name="orth">    0.02    0.03</time>
   <time name="total">    7.67    7.70</time>
   <energy>
    <i name="alphaZ">     89.84601993 </i>
    <i name="ewald">  26212.26747648 </i>
    <i name="hartreedc"> -35324.11107290 </i>
    <i name="XCdc">    238.26705105 </i>
    <i name="pawpsdc">   3964.34748912 </i>
    <i name="pawaedc">  -3536.69059538 </i>
    <i name="eentropy">     -0.00000000 </i>
    <i name="bandstr">  -2283.56886291 </i>
    <i name="atom">  10349.21864788 </i>
    <i name="e_fr_energy">   -290.42384672 </i>
    <i name="e_wo_entrp">   -290.42384672 </i>
[...]
       <r>   -24.2424     0.0000     1.0000 </r>
       <r>   -24.1432     0.0000     1.0000 </r>
       <r>   -24.0439     0.0088     1.0009 </r>
       <r>   -23.9446     3.7519     1.3733 </r>
       <r>   -23.8454     6.2475     1.9935 </r>
       <r>   -23.7461     0.0653     2.0000 </r>
       <r>   -23.6468     0.0000     2.0000 </r>
       <r>   -23.5475     0.0000     2.0000 </r>
       <r>   -23.4483     0.0000     2.0000 </r>
       <r>   -23.3490     0.0000     2.0000 </r>
       <r>   -23.2497     0.0000     2.0000 </r>
       <r>   -23.1505     0.0000     2.0000 </r>
       <r>   -23.0512     0.0000     2.0000 </r>
       <r>   -22.9519     0.0000     2.0000 </r>
       <r>   -22.8526     0.0000     2.0000 </r>
       <r>   -22.7534     0.0000     2.0000 </r>
       <r>   -22.6541     0.0000     2.0000 </r>
       <r>   -22.5548     0.0000     2.0000 </r>
       <r>   -22.4556     0.0000     2.0000 </r>
       <r>   -22.3563     0.0000     2.0000 </r>
       <r>   -22.2570     0.0000     2.0000 </r>
       <r>   -22.1578     0.0000     2.0000 </r>
       <r>   -22.0585     0.0000     2.0000 </r>
       <r>   -21.9592     0.0000     2.0000 </r>
       <r>   -21.8599     0.0000     2.0000 </r>
       <r>   -21.7607     0.0000     2.0000 </r>
       <r>   -21.6614     0.0000     2.0000 </r>
       <r>   -21.5621     0.0000     2.0000 </r>
       <r>   -21.4629     0.0000     2.0000 </r>
       <r>   -21.3636     0.0000     2.0000 </r>
       <r>   -21.2643     0.0000     2.0000 </r>
       <r>   -21.1650     0.0000     2.0000 </r>
       <r>   -21.0658     0.0000     2.0000 </r>
       <r>   -20.9665     0.0000     2.0000 </r>
       <r>   -20.8672     0.0000     2.0000 </r>
       <r>   -20.7680     0.0000     2.0000 </r>
       <r>   -20.6687     0.0000     2.0000 </r>
       <r>   -20.5694     0.0000     2.0000 </r>
       <r>   -20.4702     0.0000     2.0000 </r>
       <r>   -20.3709     0.0000     2.0000 </r>
       <r>   -20.2716     0.0000     2.0000 </r>
       <r>   -20.1723     0.0000     2.0000 </r>
       <r>   -20.0731     0.0000     2.0000 </r>
       <r>   -19.9738     0.0000     2.0000 </r>
       <r>   -19.8745     0.0000     2.0000 </r>
       <r>   -19.7753     0.0000     2.0000 </r>
       <r>   -19.6760     0.0000     2.0000 </r>
       <r>   -19.5767     0.0000     2.0000 </r>
       <r>   -19.4774     0.0000     2.0000 </r>
       <r>   -19.3782     0.0000     2.0000 </r>
       <r>   -19.2789     0.0000     2.0000 </r>
       <r>   -19.1796     0.0000     2.0000 </r>
       <r>   -19.0804     0.0000     2.0000 </r>
       <r>   -18.9811     0.0000     2.0000 </r>
       <r>   -18.8818     0.0000     2.0000 </r>
       <r>   -18.7826     0.0000     2.0000 </r>
       <r>   -18.6833     0.0000     2.0000 </r>
       <r>   -18.5840     0.0000     2.0000 </r>
       <r>   -18.4847     0.0000     2.0000 </r>
       <r>   -18.3855     0.0000     2.0000 </r>
       <r>   -18.2862     0.0000     2.0000 </r>
       <r>   -18.1869     0.0000     2.0000 </r>
       <r>   -18.0877     0.0000     2.0000 </r>
       <r>   -17.9884     0.0000     2.0000 </r>
       <r>   -17.8891     0.0000     2.0000 </r>
       <r>   -17.7898     0.0000     2.0000 </r>
       <r>   -17.6906     0.1485     2.0147 </r>
       <r>   -17.5913     7.2648     2.7359 </r>
       <r>   -17.4920     2.6572     2.9997 </r>
       <r>   -17.3928     0.3253     3.0320 </r>
       <r>   -17.2935     8.0425     3.8304 </r>
       <r>   -17.1942     1.7077     3.9999 </r>
       <r>   -17.0950     0.0008     4.0000 </r>
       <r>   -16.9957     0.0000     4.0000 </r>
       <r>   -16.8964     0.0001     4.0000 </r>
       <r>   -16.7971     0.6867     4.0682 </r>
       <r>   -16.6979    14.8175     5.5391 </r>
       <r>   -16.5986    12.3752     6.7676 </r>
       <r>   -16.4993    11.8107     7.9401 </r>
       <r>   -16.4001     0.6036     8.0000 </r>
       <r>   -16.3008     0.0001     8.0000 </r>
       <r>   -16.2015     0.0001     8.0000 </r>
       <r>   -16.1022     0.8005     8.0795 </r>
       <r>   -16.0030    19.8018    10.0452 </r>
       <r>   -15.9037    18.0510    11.8371 </r>
       <r>   -15.8044     1.6398    11.9999 </r>
       <r>   -15.7052     0.0007    12.0000 </r>
       <r>   -15.6059     0.0000    12.0000 </r>
       <r>   -15.5066     0.0000    12.0000 </r>
       <r>   -15.4074     0.1277    12.0127 </r>
       <r>   -15.3081    11.8112    13.1852 </r>
       <r>   -15.2088     8.1774    13.9970 </r>
       <r>   -15.1095     0.0306    14.0000 </r>
       <r>   -15.0103     0.0000    14.0000 </r>
       <r>   -14.9110     0.0000    14.0000 </r>
       <r>   -14.8117     0.0328    14.0033 </r>
       <r>   -14.7125     6.0250    14.6014 </r>
       <r>   -14.6132    26.0013    17.1825 </r>
       <r>   -14.5139    24.6178    19.6263 </r>
       <r>   -14.4146    13.6413    20.9805 </r>
       <r>   -14.3154     0.2041    21.0008 </r>
       <r>   -14.2161     6.8855    21.6843 </r>
       <r>   -14.1168    31.0368    24.7654 </r>
       <r>   -14.0176     2.4024    25.0038 </r>
       <r>   -13.9183     6.1454    25.6139 </r>
       <r>   -13.8190    12.8188    26.8864 </r>
       <r>   -13.7198     1.1438    27.0000 </r>
       <r>   -13.6205     0.0003    27.0000 </r>
       <r>   -13.5212     0.0000    27.0000 </r>
       <r>   -13.4219     0.0000    27.0000 </r>
       <r>   -13.3227     0.0000    27.0000 </r>
       <r>   -13.2234     0.0000    27.0000 </r>
       <r>   -13.1241     0.0000    27.0000 </r>
       <r>   -13.0249     0.0000    27.0000 </r>
       <r>   -12.9256     0.0000    27.0000 </r>
       <r>   -12.8263     0.0000    27.0000 </r>
       <r>   -12.7271     0.0000    27.0000 </r>
       <r>   -12.6278     0.0000    27.0000 </r>
       <r>   -12.5285     0.0000    27.0000 </r>
       <r>   -12.4292     0.0000    27.0000 </r>
       <r>   -12.3300     0.0000    27.0000 </r>
       <r>   -12.2307     0.0000    27.0000 </r>
       <r>   -12.1314     0.0000    27.0000 </r>
       <r>   -12.0322     0.4645    27.0461 </r>
       <r>   -11.9329    11.6766    28.2053 </r>
       <r>   -11.8336    32.6524    31.4467 </r>
       <r>   -11.7343    16.6093    33.0955 </r>
       <r>   -11.6351    14.4223    34.5272 </r>
       <r>   -11.5358    10.5969    35.5792 </r>
       <r>   -11.4365     5.2144    36.0968 </r>
       <r>   -11.3373    23.6979    38.4493 </r>
       <r>   -11.2380    22.5028    40.6832 </r>
       <r>   -11.1387     4.2208    41.1022 </r>
       <r>   -11.0395    14.8544    42.5768 </r>
       <r>   -10.9402     4.2556    42.9992 </r>
       <r>   -10.8409     0.0076    43.0000 </r>
       <r>   -10.7416     0.0000    43.0000 </r>
       <r>   -10.6424     0.0000    43.0000 </r>
       <r>   -10.5431     0.0000    43.0000 </r>
       <r>   -10.4438     0.0000    43.0000 </r>
       <r>   -10.3446     0.0000    43.0000 </r>
       <r>   -10.2453     0.0000    43.0000 </r>
       <r>   -10.1460     0.0000    43.0000 </r>
       <r>   -10.0467     0.0001    43.0000 </r>
       <r>    -9.9475     0.6144    43.0610 </r>
       <r>    -9.8482    10.5955    44.1128 </r>
       <r>    -9.7489    10.5723    45.1623 </r>
       <r>    -9.6497    26.8004    47.8228 </r>
       <r>    -9.5504    11.8024    48.9945 </r>
       <r>    -9.4511     0.0559    49.0000 </r>
       <r>    -9.3519     0.0000    49.0000 </r>
       <r>    -9.2526     0.0000    49.0000 </r>
       <r>    -9.1533     0.0000    49.0000 </r>
       <r>    -9.0540     0.0000    49.0000 </r>
       <r>    -8.9548     0.0000    49.0000 </r>
       <r>    -8.8555     0.0001    49.0000 </r>
       <r>    -8.7562     0.6687    49.0664 </r>
       <r>    -8.6570     8.4380    49.9040 </r>
       <r>    -8.5577     2.3990    50.1422 </r>
       <r>    -8.4584     8.2289    50.9591 </r>
       <r>    -8.3591     3.5655    51.3130 </r>
       <r>    -8.2599    22.7647    53.5729 </r>
       <r>    -8.1606     4.4128    54.0110 </r>
       <r>    -8.0613    11.1843    55.1212 </r>
       <r>    -7.9621    19.6989    57.0767 </r>
       <r>    -7.8628    16.8913    58.7536 </r>
       <r>    -7.7635     2.4803    58.9998 </r>
       <r>    -7.6643     0.0291    59.0027 </r>
       <r>    -7.5650     7.1357    59.7110 </r>
       <r>    -7.4657    25.0179    62.1946 </r>
       <r>    -7.3664    23.0147    64.4793 </r>
       <r>    -7.2672    27.8408    67.2430 </r>
       <r>    -7.1679    26.5195    69.8756 </r>
       <r>    -7.0686    18.1184    71.6743 </r>
       <r>    -6.9694    13.1018    72.9749 </r>
       <r>    -6.8701     8.9265    73.8610 </r>
       <r>    -6.7708    18.7196    75.7193 </r>
       <r>    -6.6715    11.5408    76.8650 </r>
       <r>    -6.5723     1.4791    77.0118 </r>
       <r>    -6.4730     9.2702    77.9321 </r>
       <r>    -6.3737    26.9545    80.6079 </r>
       <r>    -6.2745     5.6536    81.1691 </r>
       <r>    -6.1752    17.7145    82.9276 </r>
       <r>    -6.0759    10.7032    83.9901 </r>
       <r>    -5.9767     9.1487    84.8983 </r>
       <r>    -5.8774     1.3012    85.0275 </r>
       <r>    -5.7781     9.6322    85.9837 </r>
       <r>    -5.6788    23.9177    88.3580 </r>
       <r>    -5.5796    19.0004    90.2442 </r>
       <r>    -5.4803     7.5744    90.9961 </r>
       <r>    -5.3810     0.3323    91.0291 </r>
       <r>    -5.2818     9.9051    92.0124 </r>
       <r>    -5.1825    10.7979    93.0843 </r>
       <r>    -5.0832     8.6651    93.9445 </r>
       <r>    -4.9839     7.9727    94.7359 </r>
       <r>    -4.8847    21.9351    96.9134 </r>
       <r>    -4.7854     5.9446    97.5036 </r>
       <r>    -4.6861    16.3327    99.1249 </r>
       <r>    -4.5869    11.8210   100.2984 </r>
       <r>    -4.4876    21.1097   102.3940 </r>
       <r>    -4.3883    17.5430   104.1355 </r>
       <r>    -4.2891    23.1711   106.4357 </r>
       <r>    -4.1898    14.6243   107.8874 </r>
       <r>    -4.0905    23.3649   110.2069 </r>
       <r>    -3.9912    17.9107   111.9849 </r>
       <r>    -3.8920    15.1154   113.4854 </r>
       <r>    -3.7927    20.8443   115.5546 </r>
       <r>    -3.6934    29.1052   118.4439 </r>
       <r>    -3.5942    20.0171   120.4310 </r>
       <r>    -3.4949    27.6395   123.1748 </r>
       <r>    -3.3956    23.8543   125.5428 </r>
       <r>    -3.2963     8.2802   126.3648 </r>
       <r>    -3.1971    11.9564   127.5517 </r>
       <r>    -3.0978     4.4998   127.9984 </r>
       <r>    -2.9985     0.0244   128.0009 </r>
       <r>    -2.8993     3.7342   128.3716 </r>
       <r>    -2.8000     6.2718   128.9942 </r>
       <r>    -2.7007     3.6806   129.3595 </r>
       <r>    -2.6015    12.6599   130.6163 </r>
       <r>    -2.5022     3.8593   130.9994 </r>
       <r>    -2.4029     2.8340   131.2807 </r>
       <r>    -2.3036    14.7311   132.7431 </r>
       <r>    -2.2044     6.1077   133.3494 </r>
       <r>    -2.1051    15.5444   134.8925 </r>
       <r>    -2.0058     1.0825   135.0000 </r>
       <r>    -1.9066     0.0002   135.0000 </r>
       <r>    -1.8073     0.0000   135.0000 </r>
       <r>    -1.7080     0.0000   135.0000 </r>
       <r>    -1.6087     0.0000   135.0000 </r>
       <r>    -1.5095     0.0000   135.0000 </r>
       <r>    -1.4102     0.0001   135.0000 </r>
       <r>    -1.3109     0.7998   135.0794 </r>
       <r>    -1.2117     8.4581   135.9191 </r>
       <r>    -1.1124     0.8153   136.0000 </r>
       <r>    -1.0131     0.0448   136.0044 </r>
       <r>    -0.9139     5.7960   136.5798 </r>
       <r>    -0.8146    12.0349   137.7745 </r>
       <r>    -0.7153    22.6626   140.0242 </r>
       <r>    -0.6160    21.7560   142.1840 </r>
       <r>    -0.5168    13.0976   143.4842 </r>
       <r>    -0.4175     5.8115   144.0611 </r>
       <r>    -0.3182    19.3875   145.9857 </r>
       <r>    -0.2190    26.0887   148.5755 </r>
       <r>    -0.1197    15.9360   150.1575 </r>
       <r>    -0.0204    12.0475   151.3535 </r>
       <r>     0.0789    24.3980   153.7755 </r>
       <r>     0.1781     2.9424   154.0676 </r>
       <r>     0.2774    14.2478   155.4820 </r>
       <r>     0.3767    19.3011   157.3980 </r>
       <r>     0.4759    25.8283   159.9620 </r>
       <r>     0.5752    30.9641   163.0358 </r>
       <r>     0.6745    13.0219   164.3285 </r>
       <r>     0.7737    14.3904   165.7570 </r>
       <r>     0.8730    11.2517   166.8740 </r>
       <r>     0.9723    11.4617   168.0118 </r>
       <r>     1.0716    24.0171   170.3960 </r>
       <r>     1.1708    41.5065   174.5164 </r>
       <r>     1.2701    20.1210   176.5138 </r>
       <r>     1.3694    16.7631   178.1779 </r>
       <r>     1.4686    18.9185   180.0559 </r>
       <r>     1.5679    16.4756   181.6915 </r>
       <r>     1.6672    12.0864   182.8913 </r>
       <r>     1.7665     9.7110   183.8553 </r>
       <r>     1.8657     1.4568   184.0000 </r>
       <r>     1.9650     0.6119   184.0607 </r>
       <r>     2.0643     9.2453   184.9785 </r>
       <r>     2.1635     9.6075   185.9322 </r>
       <r>     2.2628    13.1100   187.2337 </r>
       <r>     2.3621    17.3655   188.9576 </r>
       <r>     2.4613     0.4276   189.0000 </r>
       <r>     2.5606     0.0000   189.0000 </r>
       <r>     2.6599     0.0000   189.0000 </r>
       <r>     2.7592     0.0000   189.0000 </r>
       <r>     2.8584     0.0000   189.0000 </r>
       <r>     2.9577     0.0000   189.0000 </r>
       <r>     3.0570     0.0000   189.0000 </r>
       <r>     3.1562     0.0000   189.0000 </r>
       <r>     3.2555     0.0000   189.0000 </r>
       <r>     3.3548     0.0000   189.0000 </r>
       <r>     3.4541     0.0000   189.0000 </r>
       <r>     3.5533     0.0000   189.0000 </r>
       <r>     3.6526     0.0000   189.0000 </r>
      </set>
     </set>
    </array>
   </total>
  </dos>
 </calculation>
 <structure name="finalpos" >
  <crystal>
   <varray name="basis" >
    <v>      13.25440025       0.00000000       0.00000000 </v>
    <v>       0.00000000      13.12889957       0.00000000 </v>
    <v>       0.00000000       0.00000000      20.00000000 </v>
   </varray>
   <i name="volume">   3480.31379686 </i>
   <varray name="rec_basis" >
    <v>       0.07544664       0.00000000       0.00000000 </v>
    <v>       0.00000000       0.07616785       0.00000000 </v>
    <v>       0.00000000       0.00000000       0.05000000 </v>
   </varray>
  </crystal>
  <varray name="positions" >
   <v>       0.06814968       0.20884121       0.04340500 </v>
   <v>       0.19444150       0.31998867       0.04279319 </v>
   <v>       0.19117652       0.03778587       0.14613066 </v>
   <v>       0.06687114       0.15164263       0.14878858 </v>
   <v>       0.31073939       0.19793023       0.03788168 </v>
   <v>       0.44187580       0.30224125       0.02428959 </v>
   <v>       0.44091784       0.03765772       0.14604772 </v>
   <v>       0.31633189       0.15068872       0.14561152 </v>
   <v>       0.57189845       0.19615850       0.03689067 </v>
   <v>       0.68959713       0.31739026       0.04045329 </v>
   <v>       0.69080000       0.03780310       0.14637401 </v>
   <v>       0.56560409       0.15068491       0.14492893 </v>
   <v>       0.81599435       0.20660447       0.04246314 </v>
   <v>       0.94136542       0.31930885       0.04109419 </v>
   <v>       0.94117488       0.03898378       0.14770046 </v>
   <v>       0.81550560       0.15147068       0.14826558 </v>
   <v>       0.06612115       0.53772780       0.03339504 </v>
   <v>       0.19030978       0.65233619       0.03105217 </v>
   <v>       0.19534427       0.38379603       0.14841870 </v>
   <v>       0.06656714       0.49211964       0.14132027 </v>
   <v>       0.31716979       0.54149390       0.02650716 </v>
   <v>       0.44093479       0.65373667       0.02488359 </v>
   <v>       0.44107164       0.35893964       0.12859752 </v>
   <v>       0.33155585       0.48505898       0.13285997 </v>
   <v>       0.56403542       0.54011962       0.02895920 </v>
   <v>       0.69085319       0.65105738       0.03217764 </v>
   <v>       0.68779101       0.37926937       0.14584370 </v>
   <v>       0.55312339       0.48350731       0.13528701 </v>
   <v>       0.81539009       0.53698416       0.03394578 </v>
   <v>       0.94035795       0.65053621       0.03393784 </v>
   <v>       0.94127165       0.37838576       0.14560147 </v>
   <v>       0.81466783       0.49015559       0.14157854 </v>
   <v>       0.06488281       0.87231978       0.03894049 </v>
   <v>       0.18900991       0.98566868       0.03942824 </v>
   <v>       0.19167264       0.69902945       0.13871566 </v>
   <v>       0.06617929       0.81152731       0.14362618 </v>
   <v>       0.31490815       0.87397231       0.03813946 </v>
   <v>       0.44087050       0.98559545       0.03974192 </v>
   <v>       0.43770764       0.70078927       0.13453247 </v>
   <v>       0.31414240       0.81449788       0.14325138 </v>
   <v>       0.56548306       0.87256905       0.03966579 </v>
   <v>       0.69129882       0.98420095       0.04011642 </v>
   <v>       0.68971576       0.69870493       0.13950099 </v>
   <v>       0.56496385       0.81137685       0.14478713 </v>
   <v>       0.81643027       0.87198982       0.03935306 </v>
   <v>       0.94074441       0.98568113       0.04121787 </v>
   <v>       0.94049786       0.69981636       0.14109034 </v>
   <v>       0.81493057       0.81172275       0.14403458 </v>
   <v>       0.43083338       0.56841897       0.20659361 </v>
   <v>       0.34740587       0.62829019       0.27894895 </v>
   <v>       0.44173159       0.58277528       0.31830213 </v>
   <v>       0.43786799       0.47869093       0.29132254 </v>
   <v>       0.28607836       0.68076403       0.30403467 </v>
  </varray>
  <varray name="selective"  type="logical" >
   <v type="logical" >  F  F  F </v>
   <v type="logical" >  F  F  F </v>
   <v type="logical" >  F  F  F </v>
   <v type="logical" >  F  F  F </v>
   <v type="logical" >  F  F  F </v>
   <v type="logical" >  F  F  F </v>
   <v type="logical" >  F  F  F </v>
   <v type="logical" >  F  F  F </v>
   <v type="logical" >  F  F  F </v>
   <v type="logical" >  F  F  F </v>
   <v type="logical" >  F  F  F </v>
   <v type="logical" >  F  F  F </v>
   <v type="logical" >  F  F  F </v>
   <v type="logical" >  F  F  F </v>
   <v type="logical" >  F  F  F </v>
   <v type="logical" >  F  F  F </v>
   <v type="logical" >  F  F  F </v>
   <v type="logical" >  F  F  F </v>
   <v type="logical" >  F  F  F </v>
   <v type="logical" >  F  F  F </v>
   <v type="logical" >  F  F  F </v>
   <v type="logical" >  F  F  F </v>
   <v type="logical" >  F  F  F </v>
   <v type="logical" >  F  F  F </v>
   <v type="logical" >  F  F  F </v>
   <v type="logical" >  F  F  F </v>
   <v type="logical" >  F  F  F </v>
   <v type="logical" >  F  F  F </v>
   <v type="logical" >  F  F  F </v>
   <v type="logical" >  F  F  F </v>
   <v type="logical" >  F  F  F </v>
   <v type="logical" >  F  F  F </v>
   <v type="logical" >  F  F  F </v>
   <v type="logical" >  F  F  F </v>
   <v type="logical" >  F  F  F </v>
   <v type="logical" >  F  F  F </v>
   <v type="logical" >  F  F  F </v>
   <v type="logical" >  F  F  F </v>
   <v type="logical" >  F  F  F </v>
   <v type="logical" >  F  F  F </v>
   <v type="logical" >  F  F  F </v>
   <v type="logical" >  F  F  F </v>
   <v type="logical" >  F  F  F </v>
   <v type="logical" >  F  F  F </v>
   <v type="logical" >  F  F  F </v>
   <v type="logical" >  F  F  F </v>
   <v type="logical" >  F  F  F </v>
   <v type="logical" >  F  F  F </v>
   <v type="logical" >  F  F  F </v>
   <v type="logical" >  T  T  T </v>
   <v type="logical" >  T  T  T </v>
   <v type="logical" >  T  T  T </v>
   <v type="logical" >  T  T  T </v>
  </varray>
  <nose>
   <v>      -3.00000000       0.00000000       0.00010000       0.00010000 </v>
  </nose>
 </structure>
</modeling>
