  53  53   0   0
  0.6566630E+02  0.1325440E-08  0.1312890E-08  0.2000000E-08  0.2000000E-15
  1.000000000000000E-004
  CAR 
 TS_BlakPhos                             
      3.60105798    -26.28275464  301     -1.87141520      1.00000000
    -26.283  0.0000E+00  0.0000E+00  0.0000E+00  0.0000E+00
    -26.183  0.0000E+00  0.0000E+00  0.0000E+00  0.0000E+00
    -26.084  0.0000E+00  0.0000E+00  0.0000E+00  0.0000E+00
    -25.984  0.0000E+00  0.0000E+00  0.0000E+00  0.0000E+00
    -25.884  0.0000E+00  0.0000E+00  0.0000E+00  0.0000E+00
    -25.785  0.0000E+00  0.0000E+00  0.0000E+00  0.0000E+00
    -25.685  0.0000E+00  0.0000E+00  0.0000E+00  0.0000E+00
    -25.585  0.0000E+00  0.0000E+00  0.0000E+00  0.0000E+00
    -25.486  0.0000E+00  0.0000E+00  0.0000E+00  0.0000E+00
    -25.386  0.0000E+00  0.0000E+00  0.0000E+00  0.0000E+00
    -25.287  0.0000E+00  0.0000E+00  0.0000E+00  0.0000E+00
    -25.187  0.5539E-15  0.5539E-15  0.5518E-16  0.5518E-16
    -25.087  0.2017E-07  0.2017E-07  0.2009E-08  0.2009E-08
    -24.988  0.3663E-03  0.3663E-03  0.3649E-04  0.3649E-04
    -24.888  0.8139E-02  0.8139E-02  0.8472E-03  0.8472E-03
    -24.789  0.1533E-02  0.1533E-02  0.9999E-03  0.9999E-03
    -24.689  0.6125E-06  0.6125E-06  0.1000E-02  0.1000E-02
    -24.589  0.1379E-12  0.1379E-12  0.1000E-02  0.1000E-02
    -24.490  0.0000E+00  0.0000E+00  0.1000E-02  0.1000E-02
    -24.390  0.0000E+00  0.0000E+00  0.1000E-02  0.1000E-02
    -24.291  0.0000E+00  0.0000E+00  0.1000E-02  0.1000E-02
    -24.191  0.0000E+00  0.0000E+00  0.1000E-02  0.1000E-02
    -24.091  0.0000E+00  0.0000E+00  0.1000E-02  0.1000E-02
    -23.992  0.0000E+00  0.0000E+00  0.1000E-02  0.1000E-02
    -23.892  0.0000E+00  0.0000E+00  0.1000E-02  0.1000E-02
    -23.792  0.0000E+00  0.0000E+00  0.1000E-02  0.1000E-02
    -23.693  0.0000E+00  0.0000E+00  0.1000E-02  0.1000E-02
    -23.593  0.0000E+00  0.0000E+00  0.1000E-02  0.1000E-02
    -23.494  0.0000E+00  0.0000E+00  0.1000E-02  0.1000E-02
    -23.394  0.0000E+00  0.0000E+00  0.1000E-02  0.1000E-02
    -23.294  0.4402E-16  0.4402E-16  0.1000E-02  0.1000E-02
    -23.195  0.3968E-08  0.3968E-08  0.1000E-02  0.1000E-02
    -23.095  0.1706E-03  0.1706E-03  0.1017E-02  0.1017E-02
    -22.996  0.7431E-02  0.7431E-02  0.1757E-02  0.1757E-02
    -22.896  0.2435E-02  0.2435E-02  0.2000E-02  0.2000E-02
    -22.796  0.2209E-05  0.2209E-05  0.2000E-02  0.2000E-02
    -22.697  0.1213E-11  0.1213E-11  0.2000E-02  0.2000E-02
    -22.597  0.0000E+00  0.0000E+00  0.2000E-02  0.2000E-02
    -22.497  0.0000E+00  0.0000E+00  0.2000E-02  0.2000E-02
    -22.398  0.0000E+00  0.0000E+00  0.2000E-02  0.2000E-02
    -22.298  0.0000E+00  0.0000E+00  0.2000E-02  0.2000E-02
    -22.199  0.0000E+00  0.0000E+00  0.2000E-02  0.2000E-02
    -22.099  0.0000E+00  0.0000E+00  0.2000E-02  0.2000E-02
    -21.999  0.0000E+00  0.0000E+00  0.2000E-02  0.2000E-02
    -21.900  0.0000E+00  0.0000E+00  0.2000E-02  0.2000E-02
    -21.800  0.0000E+00  0.0000E+00  0.2000E-02  0.2000E-02
    -21.701  0.0000E+00  0.0000E+00  0.2000E-02  0.2000E-02
    -21.601  0.0000E+00  0.0000E+00  0.2000E-02  0.2000E-02
    -21.501  0.0000E+00  0.0000E+00  0.2000E-02  0.2000E-02
    -21.402  0.0000E+00  0.0000E+00  0.2000E-02  0.2000E-02
    -21.302  0.0000E+00  0.0000E+00  0.2000E-02  0.2000E-02
    -21.203  0.0000E+00  0.0000E+00  0.2000E-02  0.2000E-02
    -21.103  0.0000E+00  0.0000E+00  0.2000E-02  0.2000E-02
    -21.003  0.0000E+00  0.0000E+00  0.2000E-02  0.2000E-02
    -20.904  0.0000E+00  0.0000E+00  0.2000E-02  0.2000E-02
    -20.804  0.0000E+00  0.0000E+00  0.2000E-02  0.2000E-02
    -20.704  0.0000E+00  0.0000E+00  0.2000E-02  0.2000E-02
    -20.605  0.0000E+00  0.0000E+00  0.2000E-02  0.2000E-02
    -20.505  0.0000E+00  0.0000E+00  0.2000E-02  0.2000E-02
    -20.406  0.0000E+00  0.0000E+00  0.2000E-02  0.2000E-02
    -20.306  0.0000E+00  0.0000E+00  0.2000E-02  0.2000E-02
    -20.206  0.0000E+00  0.0000E+00  0.2000E-02  0.2000E-02
    -20.107  0.0000E+00  0.0000E+00  0.2000E-02  0.2000E-02
    -20.007  0.0000E+00  0.0000E+00  0.2000E-02  0.2000E-02
    -19.908  0.0000E+00  0.0000E+00  0.2000E-02  0.2000E-02
    -19.808  0.0000E+00  0.0000E+00  0.2000E-02  0.2000E-02
    -19.708  0.0000E+00  0.0000E+00  0.2000E-02  0.2000E-02
    -19.609  0.0000E+00  0.0000E+00  0.2000E-02  0.2000E-02
    -19.509  0.0000E+00  0.0000E+00  0.2000E-02  0.2000E-02
    -19.409  0.0000E+00  0.0000E+00  0.2000E-02  0.2000E-02
    -19.310  0.0000E+00  0.0000E+00  0.2000E-02  0.2000E-02
    -19.210  0.0000E+00  0.0000E+00  0.2000E-02  0.2000E-02
    -19.111  0.0000E+00  0.0000E+00  0.2000E-02  0.2000E-02
    -19.011  0.0000E+00  0.0000E+00  0.2000E-02  0.2000E-02
    -18.911  0.0000E+00  0.0000E+00  0.2000E-02  0.2000E-02
    -18.812  0.1115E-17  0.1115E-17  0.2000E-02  0.2000E-02
    -18.712  0.3259E-09  0.3259E-09  0.2000E-02  0.2000E-02
    -18.613  0.4857E-04  0.4857E-04  0.2005E-02  0.2005E-02
    -18.513  0.5885E-02  0.5885E-02  0.2591E-02  0.2591E-02
    -18.413  0.4094E-02  0.4094E-02  0.2999E-02  0.2999E-02
    -18.314  0.1157E-04  0.1157E-04  0.3000E-02  0.3000E-02
    -18.214  0.2251E-10  0.2251E-10  0.3000E-02  0.3000E-02
    -18.115  0.0000E+00  0.0000E+00  0.3000E-02  0.3000E-02
    -18.015  0.0000E+00  0.0000E+00  0.3000E-02  0.3000E-02
    -17.915  0.0000E+00  0.0000E+00  0.3000E-02  0.3000E-02
    -17.816  0.0000E+00  0.0000E+00  0.3000E-02  0.3000E-02
    -17.716  0.0000E+00  0.0000E+00  0.3000E-02  0.3000E-02
    -17.616  0.5038E-15  0.5038E-15  0.3000E-02  0.3000E-02
    -17.517  0.1900E-07  0.1900E-07  0.3000E-02  0.3000E-02
    -17.417  0.3564E-03  0.3564E-03  0.3036E-02  0.3036E-02
    -17.318  0.8119E-02  0.8119E-02  0.3844E-02  0.3844E-02
    -17.218  0.1563E-02  0.1563E-02  0.4000E-02  0.4000E-02
    -17.118  0.6444E-06  0.6444E-06  0.4000E-02  0.4000E-02
    -17.019  0.1603E-12  0.1603E-12  0.4000E-02  0.4000E-02
    -16.919  0.1256E-06  0.1256E-06  0.4000E-02  0.4000E-02
    -16.820  0.8863E-03  0.8863E-03  0.4088E-02  0.4088E-02
    -16.720  0.1497E-01  0.1497E-01  0.5580E-02  0.5580E-02
    -16.620  0.1318E-01  0.1318E-01  0.6893E-02  0.6893E-02
    -16.521  0.1085E-01  0.1085E-01  0.7974E-02  0.7974E-02
    -16.421  0.2657E-03  0.2657E-03  0.8000E-02  0.8000E-02
    -16.321  0.9747E-08  0.9747E-08  0.8000E-02  0.8000E-02
    -16.222  0.2107E-06  0.2107E-06  0.8000E-02  0.8000E-02
    -16.122  0.1157E-02  0.1157E-02  0.8115E-02  0.8115E-02
    -16.023  0.2200E-01  0.2200E-01  0.1031E-01  0.1031E-01
    -15.923  0.1637E-01  0.1637E-01  0.1194E-01  0.1194E-01
    -15.823  0.6257E-03  0.6257E-03  0.1200E-01  0.1200E-01
    -15.724  0.6288E-07  0.6288E-07  0.1200E-01  0.1200E-01
    -15.624  0.3624E-14  0.3624E-14  0.1200E-01  0.1200E-01
    -15.525  0.1364E-07  0.1364E-07  0.1200E-01  0.1200E-01
    -15.425  0.3834E-03  0.3834E-03  0.1204E-01  0.1204E-01
    -15.325  0.1462E-01  0.1462E-01  0.1349E-01  0.1349E-01
    -15.226  0.5066E-02  0.5066E-02  0.1400E-01  0.1400E-01
    -15.126  0.6462E-05  0.6462E-05  0.1400E-01  0.1400E-01
    -15.027  0.6324E-11  0.6324E-11  0.1400E-01  0.1400E-01
    -14.927  0.1880E-08  0.1880E-08  0.1400E-01  0.1400E-01
    -14.827  0.1186E-03  0.1186E-03  0.1401E-01  0.1401E-01
    -14.728  0.8601E-02  0.8601E-02  0.1487E-01  0.1487E-01
    -14.628  0.3146E-01  0.3146E-01  0.1800E-01  0.1800E-01
    -14.528  0.1979E-01  0.1979E-01  0.1997E-01  0.1997E-01
    -14.429  0.1024E-01  0.1024E-01  0.2099E-01  0.2099E-01
    -14.329  0.1095E-03  0.1095E-03  0.2100E-01  0.2100E-01
    -14.230  0.1189E-01  0.1189E-01  0.2219E-01  0.2219E-01
    -14.130  0.2720E-01  0.2720E-01  0.2490E-01  0.2490E-01
    -14.030  0.1280E-02  0.1280E-02  0.2503E-01  0.2503E-01
    -13.931  0.1037E-01  0.1037E-01  0.2606E-01  0.2606E-01
    -13.831  0.9282E-02  0.9282E-02  0.2698E-01  0.2698E-01
    -13.732  0.1606E-03  0.1606E-03  0.2700E-01  0.2700E-01
    -13.632  0.3452E-08  0.3452E-08  0.2700E-01  0.2700E-01
    -13.532  0.3567E-16  0.3567E-16  0.2700E-01  0.2700E-01
    -13.433  0.0000E+00  0.0000E+00  0.2700E-01  0.2700E-01
    -13.333  0.0000E+00  0.0000E+00  0.2700E-01  0.2700E-01
    -13.233  0.0000E+00  0.0000E+00  0.2700E-01  0.2700E-01
    -13.134  0.0000E+00  0.0000E+00  0.2700E-01  0.2700E-01
    -13.034  0.0000E+00  0.0000E+00  0.2700E-01  0.2700E-01
    -12.935  0.0000E+00  0.0000E+00  0.2700E-01  0.2700E-01
    -12.835  0.0000E+00  0.0000E+00  0.2700E-01  0.2700E-01
    -12.735  0.0000E+00  0.0000E+00  0.2700E-01  0.2700E-01
    -12.636  0.0000E+00  0.0000E+00  0.2700E-01  0.2700E-01
    -12.536  0.0000E+00  0.0000E+00  0.2700E-01  0.2700E-01
    -12.437  0.0000E+00  0.0000E+00  0.2700E-01  0.2700E-01
    -12.337  0.0000E+00  0.0000E+00  0.2700E-01  0.2700E-01
    -12.237  0.6809E-13  0.6809E-13  0.2700E-01  0.2700E-01
    -12.138  0.4007E-06  0.4007E-06  0.2700E-01  0.2700E-01
    -12.038  0.1340E-02  0.1340E-02  0.2713E-01  0.2713E-01
    -11.939  0.1810E-01  0.1810E-01  0.2894E-01  0.2894E-01
    -11.839  0.3459E-01  0.3459E-01  0.3238E-01  0.3238E-01
    -11.739  0.1049E-01  0.1049E-01  0.3343E-01  0.3343E-01
    -11.640  0.1493E-01  0.1493E-01  0.3491E-01  0.3491E-01
    -11.540  0.8494E-02  0.8494E-02  0.3576E-01  0.3576E-01
    -11.440  0.7164E-02  0.7164E-02  0.3647E-01  0.3647E-01
    -11.341  0.2993E-01  0.2993E-01  0.3946E-01  0.3946E-01
    -11.241  0.1443E-01  0.1443E-01  0.4089E-01  0.4089E-01
    -11.142  0.3335E-02  0.3335E-02  0.4123E-01  0.4123E-01
    -11.042  0.7601E-02  0.7601E-02  0.4198E-01  0.4198E-01
    -10.942  0.4998E-02  0.4998E-02  0.4248E-01  0.4248E-01
    -10.843  0.5188E-02  0.5188E-02  0.4300E-01  0.4300E-01
    -10.743  0.2828E-04  0.2828E-04  0.4300E-01  0.4300E-01
    -10.644  0.1168E-09  0.1168E-09  0.4300E-01  0.4300E-01
    -10.544  0.0000E+00  0.0000E+00  0.4300E-01  0.4300E-01
    -10.444  0.0000E+00  0.0000E+00  0.4300E-01  0.4300E-01
    -10.345  0.0000E+00  0.0000E+00  0.4300E-01  0.4300E-01
    -10.245  0.0000E+00  0.0000E+00  0.4300E-01  0.4300E-01
    -10.145  0.6691E-11  0.6691E-11  0.4300E-01  0.4300E-01
    -10.046  0.5877E-05  0.5877E-05  0.4300E-01  0.4300E-01
     -9.946  0.3365E-02  0.3365E-02  0.4334E-01  0.4334E-01
     -9.847  0.1116E-01  0.1116E-01  0.4445E-01  0.4445E-01
     -9.747  0.1615E-01  0.1615E-01  0.4606E-01  0.4606E-01
     -9.647  0.2658E-01  0.2658E-01  0.4870E-01  0.4870E-01
     -9.548  0.2979E-02  0.2979E-02  0.4900E-01  0.4900E-01
     -9.448  0.1323E-05  0.1323E-05  0.4900E-01  0.4900E-01
     -9.349  0.4117E-12  0.4117E-12  0.4900E-01  0.4900E-01
     -9.249  0.2216E-11  0.2216E-11  0.4900E-01  0.4900E-01
     -9.149  0.3131E-05  0.3131E-05  0.4900E-01  0.4900E-01
     -9.050  0.2738E-02  0.2738E-02  0.4927E-01  0.4927E-01
     -8.950  0.7163E-02  0.7163E-02  0.4999E-01  0.4999E-01
     -8.851  0.1347E-03  0.1347E-03  0.5000E-01  0.5000E-01
     -8.751  0.2445E-08  0.2445E-08  0.5000E-01  0.5000E-01
     -8.651  0.1499E-15  0.1499E-15  0.5000E-01  0.5000E-01
     -8.552  0.8026E-08  0.8026E-08  0.5000E-01  0.5000E-01
     -8.452  0.2633E-03  0.2633E-03  0.5003E-01  0.5003E-01
     -8.352  0.1286E-01  0.1286E-01  0.5131E-01  0.5131E-01
     -8.253  0.1163E-01  0.1163E-01  0.5247E-01  0.5247E-01
     -8.153  0.1045E-01  0.1045E-01  0.5351E-01  0.5351E-01
     -8.054  0.1762E-01  0.1762E-01  0.5526E-01  0.5526E-01
     -7.954  0.2743E-01  0.2743E-01  0.5799E-01  0.5799E-01
     -7.854  0.9896E-02  0.9896E-02  0.5898E-01  0.5898E-01
     -7.755  0.1946E-03  0.1946E-03  0.5900E-01  0.5900E-01
     -7.655  0.4723E-03  0.4723E-03  0.5905E-01  0.5905E-01
     -7.556  0.1549E-01  0.1549E-01  0.6059E-01  0.6059E-01
     -7.456  0.2364E-01  0.2364E-01  0.6294E-01  0.6294E-01
     -7.356  0.3052E-01  0.3052E-01  0.6599E-01  0.6599E-01
     -7.257  0.2222E-01  0.2222E-01  0.6820E-01  0.6820E-01
     -7.157  0.2535E-01  0.2535E-01  0.7072E-01  0.7072E-01
     -7.058  0.5448E-02  0.5448E-02  0.7127E-01  0.7127E-01
     -6.958  0.8418E-02  0.8418E-02  0.7211E-01  0.7211E-01
     -6.858  0.1840E-01  0.1840E-01  0.7394E-01  0.7394E-01
     -6.759  0.1127E-01  0.1127E-01  0.7506E-01  0.7506E-01
     -6.659  0.8781E-02  0.8781E-02  0.7593E-01  0.7593E-01
     -6.559  0.3485E-02  0.3485E-02  0.7628E-01  0.7628E-01
     -6.460  0.1936E-01  0.1936E-01  0.7821E-01  0.7821E-01
     -6.360  0.1545E-01  0.1545E-01  0.7975E-01  0.7975E-01
     -6.261  0.8260E-02  0.8260E-02  0.8057E-01  0.8057E-01
     -6.161  0.1242E-01  0.1242E-01  0.8181E-01  0.8181E-01
     -6.061  0.1189E-01  0.1189E-01  0.8299E-01  0.8299E-01
     -5.962  0.1016E-01  0.1016E-01  0.8401E-01  0.8401E-01
     -5.862  0.9055E-02  0.9055E-02  0.8491E-01  0.8491E-01
     -5.763  0.1692E-01  0.1692E-01  0.8659E-01  0.8659E-01
     -5.663  0.2600E-01  0.2600E-01  0.8918E-01  0.8918E-01
     -5.563  0.1692E-01  0.1692E-01  0.9087E-01  0.9087E-01
     -5.464  0.1322E-02  0.1322E-02  0.9100E-01  0.9100E-01
     -5.364  0.8330E-03  0.8330E-03  0.9108E-01  0.9108E-01
     -5.264  0.1533E-01  0.1533E-01  0.9261E-01  0.9261E-01
     -5.165  0.5774E-02  0.5774E-02  0.9319E-01  0.9319E-01
     -5.065  0.1140E-01  0.1140E-01  0.9432E-01  0.9432E-01
     -4.966  0.1852E-01  0.1852E-01  0.9617E-01  0.9617E-01
     -4.866  0.8887E-02  0.8887E-02  0.9705E-01  0.9705E-01
     -4.766  0.1141E-01  0.1141E-01  0.9819E-01  0.9819E-01
     -4.667  0.1731E-01  0.1731E-01  0.9991E-01  0.9991E-01
     -4.567  0.1552E-01  0.1552E-01  0.1015E+00  0.1015E+00
     -4.468  0.2175E-01  0.2175E-01  0.1036E+00  0.1036E+00
     -4.368  0.1898E-01  0.1898E-01  0.1055E+00  0.1055E+00
     -4.268  0.1667E-01  0.1667E-01  0.1072E+00  0.1072E+00
     -4.169  0.1951E-01  0.1951E-01  0.1091E+00  0.1091E+00
     -4.069  0.2183E-01  0.2183E-01  0.1113E+00  0.1113E+00
     -3.970  0.1521E-01  0.1521E-01  0.1128E+00  0.1128E+00
     -3.870  0.1535E-01  0.1535E-01  0.1143E+00  0.1143E+00
     -3.770  0.3311E-01  0.3311E-01  0.1176E+00  0.1176E+00
     -3.671  0.2442E-01  0.2442E-01  0.1201E+00  0.1201E+00
     -3.571  0.1867E-01  0.1867E-01  0.1219E+00  0.1219E+00
     -3.471  0.2985E-01  0.2985E-01  0.1249E+00  0.1249E+00
     -3.372  0.1516E-01  0.1516E-01  0.1264E+00  0.1264E+00
     -3.272  0.5859E-02  0.5859E-02  0.1270E+00  0.1270E+00
     -3.173  0.6267E-04  0.6267E-04  0.1270E+00  0.1270E+00
     -3.073  0.5251E-02  0.5251E-02  0.1275E+00  0.1275E+00
     -2.973  0.4769E-02  0.4769E-02  0.1280E+00  0.1280E+00
     -2.874  0.5270E-02  0.5270E-02  0.1285E+00  0.1285E+00
     -2.774  0.6171E-02  0.6171E-02  0.1291E+00  0.1291E+00
     -2.675  0.8303E-02  0.8303E-02  0.1300E+00  0.1300E+00
     -2.575  0.6929E-02  0.6929E-02  0.1307E+00  0.1307E+00
     -2.475  0.3974E-02  0.3974E-02  0.1311E+00  0.1311E+00
     -2.376  0.1418E-01  0.1418E-01  0.1325E+00  0.1325E+00
     -2.276  0.1505E-01  0.1505E-01  0.1340E+00  0.1340E+00
     -2.176  0.7165E-02  0.7165E-02  0.1347E+00  0.1347E+00
     -2.077  0.3208E-02  0.3208E-02  0.1350E+00  0.1350E+00
     -1.977  0.5120E-05  0.5120E-05  0.1350E+00  0.1350E+00
     -1.878  0.5244E-11  0.5244E-11  0.1350E+00  0.1350E+00
     -1.778  0.0000E+00  0.0000E+00  0.1350E+00  0.1350E+00
     -1.678  0.0000E+00  0.0000E+00  0.1350E+00  0.1350E+00
     -1.579  0.1672E-17  0.1672E-17  0.1350E+00  0.1350E+00
     -1.479  0.4062E-09  0.4062E-09  0.1350E+00  0.1350E+00
     -1.380  0.5445E-04  0.5445E-04  0.1350E+00  0.1350E+00
     -1.280  0.6036E-02  0.6036E-02  0.1356E+00  0.1356E+00
     -1.180  0.6752E-02  0.6752E-02  0.1363E+00  0.1363E+00
     -1.081  0.7108E-02  0.7108E-02  0.1370E+00  0.1370E+00
     -0.981  0.1434E-03  0.1434E-03  0.1370E+00  0.1370E+00
     -0.882  0.4968E-02  0.4968E-02  0.1375E+00  0.1375E+00
     -0.782  0.2068E-01  0.2068E-01  0.1396E+00  0.1396E+00
     -0.682  0.2534E-01  0.2534E-01  0.1421E+00  0.1421E+00
     -0.583  0.1058E-01  0.1058E-01  0.1431E+00  0.1431E+00
     -0.483  0.8306E-02  0.8306E-02  0.1440E+00  0.1440E+00
     -0.383  0.9618E-02  0.9618E-02  0.1449E+00  0.1449E+00
     -0.284  0.2758E-01  0.2758E-01  0.1477E+00  0.1477E+00
     -0.184  0.2274E-01  0.2274E-01  0.1499E+00  0.1499E+00
     -0.085  0.1120E-01  0.1120E-01  0.1510E+00  0.1510E+00
      0.015  0.2186E-01  0.2186E-01  0.1532E+00  0.1532E+00
      0.115  0.7759E-02  0.7759E-02  0.1540E+00  0.1540E+00
      0.214  0.7862E-02  0.7862E-02  0.1548E+00  0.1548E+00
      0.314  0.2268E-01  0.2268E-01  0.1570E+00  0.1570E+00
      0.413  0.2138E-01  0.2138E-01  0.1592E+00  0.1592E+00
      0.513  0.3156E-01  0.3156E-01  0.1623E+00  0.1623E+00
      0.613  0.1696E-01  0.1696E-01  0.1640E+00  0.1640E+00
      0.712  0.1330E-01  0.1330E-01  0.1653E+00  0.1653E+00
      0.812  0.9482E-02  0.9482E-02  0.1663E+00  0.1663E+00
      0.912  0.1456E-01  0.1456E-01  0.1677E+00  0.1677E+00
      1.011  0.1834E-01  0.1834E-01  0.1696E+00  0.1696E+00
      1.111  0.4020E-01  0.4020E-01  0.1736E+00  0.1736E+00
      1.210  0.2431E-01  0.2431E-01  0.1760E+00  0.1760E+00
      1.310  0.2047E-01  0.2047E-01  0.1780E+00  0.1780E+00
      1.410  0.1869E-01  0.1869E-01  0.1799E+00  0.1799E+00
      1.509  0.1367E-01  0.1367E-01  0.1812E+00  0.1812E+00
      1.609  0.1584E-01  0.1584E-01  0.1828E+00  0.1828E+00
      1.708  0.1900E-02  0.1900E-02  0.1830E+00  0.1830E+00
      1.808  0.6421E-02  0.6421E-02  0.1836E+00  0.1836E+00
      1.908  0.3750E-02  0.3750E-02  0.1840E+00  0.1840E+00
      2.007  0.8093E-02  0.8093E-02  0.1848E+00  0.1848E+00
      2.107  0.1196E-01  0.1196E-01  0.1860E+00  0.1860E+00
      2.206  0.1450E-01  0.1450E-01  0.1875E+00  0.1875E+00
      2.306  0.1499E-01  0.1499E-01  0.1890E+00  0.1890E+00
      2.406  0.4440E-03  0.4440E-03  0.1890E+00  0.1890E+00
      2.505  0.2098E-07  0.2098E-07  0.1890E+00  0.1890E+00
      2.605  0.5584E-15  0.5584E-15  0.1890E+00  0.1890E+00
      2.705  0.0000E+00  0.0000E+00  0.1890E+00  0.1890E+00
      2.804  0.0000E+00  0.0000E+00  0.1890E+00  0.1890E+00
      2.904  0.0000E+00  0.0000E+00  0.1890E+00  0.1890E+00
      3.003  0.0000E+00  0.0000E+00  0.1890E+00  0.1890E+00
      3.103  0.0000E+00  0.0000E+00  0.1890E+00  0.1890E+00
      3.203  0.0000E+00  0.0000E+00  0.1890E+00  0.1890E+00
      3.302  0.0000E+00  0.0000E+00  0.1890E+00  0.1890E+00
      3.402  0.0000E+00  0.0000E+00  0.1890E+00  0.1890E+00
      3.501  0.0000E+00  0.0000E+00  0.1890E+00  0.1890E+00
      3.601  0.0000E+00  0.0000E+00  0.1890E+00  0.1890E+00
