   53   53 1000    2
  0.6566630E+02  0.1325440E-08  0.1312890E-08  0.2000000E-08  0.2000000E-15
  1.000000000000000E-004
  CAR 
 TS_BlakPhos                             
    270      1    189
 
  0.1262379E-14  0.1262379E-14  0.1262379E-14  0.1000000E+01
    1      -24.924400    -24.924400
    2      -23.020188    -23.020188
    3      -18.521105    -18.521105
    4      -17.353393    -17.353393
    5      -16.770106    -16.770106
    6      -16.733212    -16.733212
    7      -16.639186    -16.639186
    8      -16.589369    -16.589369
    9      -16.076970    -16.076970
   10      -16.041546    -16.041546
   11      -16.028258    -16.028258
   12      -15.977864    -15.977864
   13      -15.358147    -15.358147
   14      -15.341068    -15.341068
   15      -14.747247    -14.747247
   16      -14.686046    -14.686046
   17      -14.654455    -14.654455
   18      -14.652878    -14.652878
   19      -14.629605    -14.629605
   20      -14.533690    -14.533690
   21      -14.521087    -14.521087
   22      -14.236002    -14.236002
   23      -14.213389    -14.213389
   24      -14.200024    -14.200024
   25      -14.182937    -14.182937
   26      -13.961561    -13.961561
   27      -13.907086    -13.907086
   28      -11.998273    -11.998273
   29      -11.942578    -11.942578
   30      -11.915522    -11.915522
   31      -11.902183    -11.902183
   32      -11.864126    -11.864126
   33      -11.854701    -11.854701
   34      -11.726838    -11.726838
   35      -11.685741    -11.685741
   36      -11.564965    -11.564965
   37      -11.430348    -11.430348
   38      -11.382819    -11.382819
   39      -11.367560    -11.367560
   40      -11.364213    -11.364213
   41      -11.285251    -11.285251
   42      -11.114963    -11.114963
   43      -10.940660    -10.940660
   44       -9.931124     -9.931124
   45       -9.841987     -9.841987
   46       -9.760619     -9.760619
   47       -9.730286     -9.730286
   48       -9.693958     -9.693958
   49       -9.678147     -9.678147
   50       -9.028415     -9.028415
   51       -8.381954     -8.381954
   52       -8.353168     -8.353168
   53       -8.249906     -8.249906
   54       -8.149079     -8.149079
   55       -8.097225     -8.097225
   56       -8.028846     -8.028846
   57       -8.007281     -8.007281
   58       -7.990844     -7.990844
   59       -7.927523     -7.927523
   60       -7.594499     -7.594499
   61       -7.561290     -7.561290
   62       -7.513230     -7.513230
   63       -7.495796     -7.495796
   64       -7.403352     -7.403352
   65       -7.396552     -7.396552
   66       -7.375659     -7.375659
   67       -7.355657     -7.355657
   68       -7.261330     -7.261330
   69       -7.249913     -7.249913
   70       -7.228269     -7.228269
   71       -7.181167     -7.181167
   72       -7.035517     -7.035517
   73       -6.907322     -6.907322
   74       -6.897190     -6.897190
   75       -6.822539     -6.822539
   76       -6.712461     -6.712461
   77       -6.537297     -6.537297
   78       -6.482236     -6.482236
   79       -6.457298     -6.457298
   80       -6.383895     -6.383895
   81       -6.264753     -6.264753
   82       -6.191322     -6.191322
   83       -6.070070     -6.070070
   84       -6.052077     -6.052077
   85       -5.881797     -5.881797
   86       -5.831706     -5.831706
   87       -5.760991     -5.760991
   88       -5.712106     -5.712106
   89       -5.707210     -5.707210
   90       -5.646774     -5.646774
   91       -5.604407     -5.604407
   92       -5.312503     -5.312503
   93       -5.282700     -5.282700
   94       -5.133184     -5.133184
   95       -5.045300     -5.045300
   96       -5.010791     -5.010791
   97       -4.944949     -4.944949
   98       -4.812284     -4.812284
   99       -4.740215     -4.740215
  100       -4.710184     -4.710184
  101       -4.603605     -4.603605
  102       -4.572699     -4.572699
  103       -4.506531     -4.506531
  104       -4.472781     -4.472781
  105       -4.437992     -4.437992
  106       -4.356336     -4.356336
  107       -4.334118     -4.334118
  108       -4.238443     -4.238443
  109       -4.190874     -4.190874
  110       -4.153977     -4.153977
  111       -4.116549     -4.116549
  112       -4.058445     -4.058445
  113       -3.987547     -3.987547
  114       -3.927803     -3.927803
  115       -3.844146     -3.844146
  116       -3.828231     -3.828231
  117       -3.798995     -3.798995
  118       -3.791396     -3.791396
  119       -3.733866     -3.733866
  120       -3.706857     -3.706857
  121       -3.647599     -3.647599
  122       -3.565764     -3.565764
  123       -3.555316     -3.555316
  124       -3.533681     -3.533681
  125       -3.504752     -3.504752
  126       -3.430925     -3.430925
  127       -3.368326     -3.368326
  128       -3.075298     -3.075298
  129       -2.876067     -2.876067
  130       -2.736385     -2.736385
  131       -2.589324     -2.589324
  132       -2.418173     -2.418173
  133       -2.370047     -2.370047
  134       -2.338307     -2.338307
  135       -2.193007     -2.193007
  136       -1.289507     -1.289507
  137       -1.159777     -1.159777
  138       -0.876812     -0.876812
  139       -0.822281     -0.822281
  140       -0.781279     -0.781279
  141       -0.749672     -0.749672
  142       -0.702141     -0.702141
  143       -0.673256     -0.673256
  144       -0.544640     -0.544640
  145       -0.386500     -0.386500
  146       -0.364391     -0.364391
  147       -0.335685     -0.335685
  148       -0.286806     -0.286806
  149       -0.249680     -0.249680
  150       -0.226467     -0.226467
  151       -0.135360     -0.135360
  152       -0.038488     -0.038488
  153       -0.016566     -0.016566
  154        0.016972      0.016972
  155        0.214840      0.214840
  156        0.237891      0.237891
  157        0.276998      0.276998
  158        0.350046      0.350046
  159        0.370039      0.370039
  160        0.449100      0.449100
  161        0.457400      0.457400
  162        0.470524      0.470524
  163        0.525617      0.525617
  164        0.548110      0.548110
  165        0.673317      0.673317
  166        0.715488      0.715488
  167        0.834211      0.834211
  168        0.890779      0.890779
  169        0.990753      0.990753
  170        1.003737      1.003737
  171        1.040204      1.040204
  172        1.080848      1.080848
  173        1.087605      1.087605
  174        1.102801      1.102801
  175        1.119558      1.119558
  176        1.170617      1.170617
  177        1.256330      1.256330
  178        1.285402      1.285402
  179        1.330353      1.330353
  180        1.370935      1.370935
  181        1.477824      1.477824
  182        1.518347      1.518347
  183        1.575984      1.575984
  184        1.794704      1.794704
  185        1.979434      1.979434
  186        2.068241      2.068241
  187        2.142784      2.142784
  188        2.220494      2.220494
  189        2.242702      2.242703
