       N       E                     dE             d eps       ncg     rms          rms(c)
RMM:   1     0.352429682826E+04    0.35243E+04   -0.72939E+04   378   0.928E+02
RMM:   2     0.121236767845E+04   -0.23119E+04   -0.25215E+04   378   0.202E+02
RMM:   3     0.421513332108E+03   -0.79085E+03   -0.10644E+04   378   0.117E+02
RMM:   4    -0.388078172853E+01   -0.42539E+03   -0.41305E+03   378   0.920E+01
RMM:   5    -0.173306023174E+03   -0.16943E+03   -0.14714E+03   378   0.601E+01
RMM:   6    -0.235852766165E+03   -0.62547E+02   -0.53837E+02   378   0.374E+01
RMM:   7    -0.259948430726E+03   -0.24096E+02   -0.21462E+02   378   0.235E+01
RMM:   8    -0.270816764363E+03   -0.10868E+02   -0.95527E+01   378   0.155E+01
RMM:   9    -0.275895051496E+03   -0.50783E+01   -0.46210E+01   378   0.106E+01
RMM:  10    -0.278603735793E+03   -0.27087E+01   -0.24020E+01   378   0.757E+00
RMM:  11    -0.279997373011E+03   -0.13936E+01   -0.12969E+01   378   0.542E+00
RMM:  12    -0.280774613031E+03   -0.77724E+00   -0.70309E+00   378   0.402E+00
RMM:  13    -0.281180708098E+03   -0.40610E+00   -0.38633E+00   378   0.291E+00
RMM:  14    -0.281418684056E+03   -0.23798E+00   -0.21739E+00   378   0.223E+00
RMM:  15    -0.281723852905E+03   -0.30517E+00   -0.30055E+00  1009   0.163E+00
RMM:  16    -0.281739911939E+03   -0.16059E-01   -0.16215E-01  1062   0.277E-01
RMM:  17    -0.281741444452E+03   -0.15325E-02   -0.17208E-02  1087   0.831E-02
RMM:  18    -0.281741733648E+03   -0.28920E-03   -0.33266E-03   932   0.314E-02
RMM:  19    -0.281741759815E+03   -0.26167E-04   -0.42019E-04   776   0.116E-02
RMM:  20    -0.281741769081E+03   -0.92667E-05   -0.10790E-04   648   0.538E-03    0.293E+01
RMM:  21    -0.290319586273E+03   -0.85778E+01   -0.63953E+00   766   0.434E+00    0.128E+01
RMM:  22    -0.289722553632E+03    0.59703E+00   -0.25090E+00   768   0.257E+00    0.814E+00
RMM:  23    -0.289875030617E+03   -0.15248E+00   -0.25374E+00   784   0.249E+00    0.644E+00
RMM:  24    -0.289057845599E+03    0.81719E+00   -0.96276E-01   760   0.158E+00    0.278E+00
RMM:  25    -0.288927924602E+03    0.12992E+00   -0.31085E-01   764   0.813E-01    0.120E+00
RMM:  26    -0.288922851127E+03    0.50735E-02   -0.70331E-02   819   0.405E-01    0.753E-01
RMM:  27    -0.288912961042E+03    0.98901E-02   -0.27984E-02   756   0.256E-01    0.339E-01
RMM:  28    -0.288911167930E+03    0.17931E-02   -0.10567E-02   761   0.176E-01    0.145E-01
RMM:  29    -0.288911127749E+03    0.40180E-04   -0.21454E-03   787   0.791E-02    0.895E-02
RMM:  30    -0.288910993389E+03    0.13436E-03   -0.57649E-04   774   0.373E-02    0.530E-02
RMM:  31    -0.288910977311E+03    0.16078E-04   -0.12993E-04   764   0.208E-02    0.185E-02
RMM:  32    -0.288910981969E+03   -0.46586E-05   -0.33952E-05   791   0.977E-03    0.112E-02
RMM:  33    -0.288910983139E+03   -0.11700E-05   -0.94841E-06   686   0.527E-03    0.733E-03
RMM:  34    -0.288910983096E+03    0.43054E-07   -0.36521E-06   554   0.398E-03
   1 F= -.28889795E+03 E0= -.28889795E+03  d E =-.288898E+03  mag=    -0.0002
       N       E                     dE             d eps       ncg     rms          rms(c)
RMM:   1    -0.285752155851E+03    0.31588E+01   -0.32994E+02   774   0.257E+01    0.193E+01
RMM:   2    -0.301521777595E+03   -0.15770E+02   -0.67343E+01   832   0.971E+00    0.123E+01
RMM:   3    -0.294142120212E+03    0.73797E+01   -0.74649E+00   799   0.432E+00    0.954E+00
RMM:   4    -0.292629721038E+03    0.15124E+01   -0.15611E+00   785   0.202E+00    0.726E+00
RMM:   5    -0.291004665159E+03    0.16251E+01   -0.18159E+00   799   0.162E+00    0.461E+00
RMM:   6    -0.290266864835E+03    0.73780E+00   -0.14176E+00   842   0.143E+00    0.264E+00
RMM:   7    -0.290129306456E+03    0.13756E+00   -0.31184E-01   851   0.689E-01    0.189E+00
RMM:   8    -0.290061694112E+03    0.67612E-01   -0.32004E-01   801   0.642E-01    0.777E-01
RMM:   9    -0.290072437647E+03   -0.10744E-01   -0.12137E-01   900   0.386E-01    0.700E-01
RMM:  10    -0.290061011257E+03    0.11426E-01   -0.15595E-02   778   0.160E-01    0.336E-01
RMM:  11    -0.290061525833E+03   -0.51458E-03   -0.59267E-03   861   0.100E-01    0.267E-01
RMM:  12    -0.290059522780E+03    0.20031E-02   -0.48491E-03   770   0.779E-02    0.826E-02
RMM:  13    -0.290059598740E+03   -0.75960E-04   -0.63461E-04   776   0.439E-02    0.382E-02
RMM:  14    -0.290059605438E+03   -0.66980E-05   -0.11757E-04   776   0.134E-02    0.234E-02
RMM:  15    -0.290059602800E+03    0.26384E-05   -0.43705E-05   745   0.789E-03    0.147E-02
RMM:  16    -0.290059597960E+03    0.48396E-05   -0.25636E-05   669   0.591E-03    0.627E-03
RMM:  17    -0.290059597896E+03    0.63992E-07   -0.30338E-06   530   0.287E-03
   2 F= -.29001947E+03 E0= -.29001947E+03  d E =-.112152E+01  mag=    -0.0000
       N       E                     dE             d eps       ncg     rms          rms(c)
RMM:   1    -0.290297582017E+03   -0.23798E+00   -0.15192E+01   762   0.640E+00    0.796E-01
RMM:   2    -0.290201126361E+03    0.96456E-01   -0.22680E-01   758   0.833E-01    0.850E-01
RMM:   3    -0.290197127427E+03    0.39989E-02   -0.16443E-02   940   0.170E-01    0.743E-01
RMM:   4    -0.290195883402E+03    0.12440E-02   -0.10495E-02   767   0.135E-01    0.465E-01
RMM:   5    -0.290198710317E+03   -0.28269E-02   -0.15274E-02   764   0.173E-01    0.281E-01
RMM:   6    -0.290197816693E+03    0.89362E-03   -0.11838E-03   760   0.614E-02    0.184E-01
RMM:   7    -0.290197385924E+03    0.43077E-03   -0.15176E-03   756   0.448E-02    0.767E-02
RMM:   8    -0.290197396796E+03   -0.10871E-04   -0.21774E-04   749   0.219E-02    0.421E-02
RMM:   9    -0.290197400206E+03   -0.34108E-05   -0.18894E-04   734   0.193E-02    0.115E-02
RMM:  10    -0.290197403475E+03   -0.32682E-05   -0.36355E-05   730   0.821E-03    0.115E-02
RMM:  11    -0.290197399796E+03    0.36790E-05   -0.10080E-05   605   0.419E-03    0.496E-03
RMM:  12    -0.290197399782E+03    0.14055E-07   -0.12026E-06   495   0.212E-03
   3 F= -.29016158E+03 E0= -.29016158E+03  d E =-.126363E+01  mag=    -0.0000
       N       E                     dE             d eps       ncg     rms          rms(c)
RMM:   1    -0.290260754824E+03   -0.63355E-01   -0.67668E+00   762   0.429E+00    0.554E-01
RMM:   2    -0.290226354633E+03    0.34400E-01   -0.90147E-02   758   0.527E-01    0.544E-01
RMM:   3    -0.290224759332E+03    0.15953E-02   -0.68768E-03   921   0.114E-01    0.440E-01
RMM:   4    -0.290225251937E+03   -0.49261E-03   -0.68465E-03   759   0.116E-01    0.215E-01
RMM:   5    -0.290225661083E+03   -0.40915E-03   -0.20109E-03   762   0.679E-02    0.134E-01
RMM:   6    -0.290225627562E+03    0.33522E-04   -0.35573E-04   767   0.293E-02    0.744E-02
RMM:   7    -0.290225617798E+03    0.97636E-05   -0.24748E-04   731   0.191E-02    0.368E-02
RMM:   8    -0.290225620408E+03   -0.26104E-05   -0.63703E-05   708   0.130E-02    0.169E-02
RMM:   9    -0.290225622319E+03   -0.19104E-05   -0.31957E-05   681   0.895E-03    0.612E-03
RMM:  10    -0.290225622648E+03   -0.32951E-06   -0.45939E-06   557   0.349E-03
   4 F= -.29019281E+03 E0= -.29019281E+03  d E =-.129486E+01  mag=     0.0000
       N       E                     dE             d eps       ncg     rms          rms(c)
RMM:   1    -0.290371149580E+03   -0.14553E+00   -0.39985E+01   762   0.999E+00    0.129E+00
RMM:   2    -0.290093227192E+03    0.27792E+00   -0.81568E-01   765   0.154E+00    0.197E+00
RMM:   3    -0.290055259030E+03    0.37968E-01   -0.47775E-02   900   0.332E-01    0.162E+00
RMM:   4    -0.290041744036E+03    0.13515E-01   -0.14856E-02   772   0.171E-01    0.127E+00
RMM:   5    -0.290058623053E+03   -0.16879E-01   -0.20712E-01   761   0.548E-01    0.108E+00
RMM:   6    -0.290037293667E+03    0.21329E-01   -0.11299E-02   767   0.192E-01    0.547E-01
RMM:   7    -0.290033734339E+03    0.35593E-02   -0.61396E-03   768   0.912E-02    0.306E-01
RMM:   8    -0.290032806934E+03    0.92740E-03   -0.33748E-03   797   0.642E-02    0.121E-01
RMM:   9    -0.290032877104E+03   -0.70170E-04   -0.76785E-04   779   0.374E-02    0.459E-02
RMM:  10    -0.290032888416E+03   -0.11312E-04   -0.25378E-04   779   0.240E-02    0.157E-02
RMM:  11    -0.290032901514E+03   -0.13098E-04   -0.11281E-04   811   0.134E-02    0.182E-02
RMM:  12    -0.290032897903E+03    0.36117E-05   -0.70969E-06   595   0.447E-03    0.155E-02
RMM:  13    -0.290032893048E+03    0.48548E-05   -0.11829E-05   593   0.434E-03    0.520E-03
RMM:  14    -0.290032893471E+03   -0.42313E-06   -0.40615E-06   526   0.277E-03
   5 F= -.29000781E+03 E0= -.29000781E+03  d E =-.110986E+01  mag=    -0.0000
       N       E                     dE             d eps       ncg     rms          rms(c)
RMM:   1    -0.290166967372E+03   -0.13407E+00   -0.52288E+00   762   0.369E+00    0.572E-01
RMM:   2    -0.290151072498E+03    0.15895E-01   -0.66056E-02   757   0.472E-01    0.379E-01
RMM:   3    -0.290150645942E+03    0.42656E-03   -0.77492E-03   833   0.119E-01    0.301E-01
RMM:   4    -0.290150928888E+03   -0.28295E-03   -0.28538E-03   765   0.909E-02    0.155E-01
RMM:   5    -0.290151077566E+03   -0.14868E-03   -0.93361E-04   761   0.480E-02    0.710E-02
RMM:   6    -0.290151106776E+03   -0.29210E-04   -0.15386E-04   768   0.188E-02    0.465E-02
RMM:   7    -0.290151129649E+03   -0.22873E-04   -0.66794E-05   715   0.127E-02    0.214E-02
RMM:   8    -0.290151138443E+03   -0.87940E-05   -0.24659E-05   690   0.864E-03    0.728E-03
RMM:   9    -0.290151138766E+03   -0.32273E-06   -0.60109E-06   577   0.386E-03
   6 F= -.29012312E+03 E0= -.29012312E+03  d E =-.122517E+01  mag=     0.0000
       N       E                     dE             d eps       ncg     rms          rms(c)
RMM:   1    -0.290132620277E+03    0.18518E-01   -0.21513E-01   762   0.748E-01    0.103E-01
RMM:   2    -0.290131932937E+03    0.68734E-03   -0.28619E-03   758   0.957E-02    0.882E-02
RMM:   3    -0.290131928848E+03    0.40891E-05   -0.35345E-04   808   0.271E-02    0.585E-02
RMM:   4    -0.290131934059E+03   -0.52110E-05   -0.10858E-04   724   0.162E-02    0.331E-02
RMM:   5    -0.290131940747E+03   -0.66880E-05   -0.25244E-05   674   0.881E-03    0.170E-02
RMM:   6    -0.290131948516E+03   -0.77687E-05   -0.93100E-06   602   0.517E-03    0.797E-03
RMM:   7    -0.290131948794E+03   -0.27805E-06   -0.16010E-06   500   0.251E-03
   7 F= -.29010455E+03 E0= -.29010455E+03  d E =-.120660E+01  mag=    -0.0000
       N       E                     dE             d eps       ncg     rms          rms(c)
RMM:   1    -0.290748325401E+03   -0.61638E+00   -0.56867E+01   758   0.122E+01    0.200E+00
RMM:   2    -0.290428108273E+03    0.32022E+00   -0.96519E-01   758   0.173E+00    0.119E+00
RMM:   3    -0.290410151623E+03    0.17957E-01   -0.11453E-01   820   0.421E-01    0.104E+00
RMM:   4    -0.290403166510E+03    0.69851E-02   -0.16364E-02   775   0.198E-01    0.806E-01
RMM:   5    -0.290404611227E+03   -0.14447E-02   -0.21309E-02   768   0.186E-01    0.464E-01
RMM:   6    -0.290405481353E+03   -0.87013E-03   -0.57681E-03   758   0.126E-01    0.187E-01
RMM:   7    -0.290404931021E+03    0.55033E-03   -0.33526E-03   775   0.699E-02    0.928E-02
RMM:   8    -0.290404886235E+03    0.44786E-04   -0.30346E-04   786   0.311E-02    0.663E-02
RMM:   9    -0.290404951562E+03   -0.65327E-04   -0.50974E-04   758   0.285E-02    0.352E-02
RMM:  10    -0.290404929490E+03    0.22073E-04   -0.70721E-05   684   0.130E-02    0.121E-02
RMM:  11    -0.290404927840E+03    0.16499E-05   -0.17329E-05   664   0.586E-03    0.647E-03
RMM:  12    -0.290404927435E+03    0.40465E-06   -0.33165E-06   540   0.298E-03
   8 F= -.29037404E+03 E0= -.29037404E+03  d E =-.269485E+00  mag=     0.0000
       N       E                     dE             d eps       ncg     rms          rms(c)
RMM:   1    -0.290392639393E+03    0.12288E-01   -0.47810E+00   758   0.356E+00    0.456E-01
RMM:   2    -0.290373914486E+03    0.18725E-01   -0.64147E-02   760   0.414E-01    0.392E-01
RMM:   3    -0.290373439053E+03    0.47543E-03   -0.78455E-03   915   0.120E-01    0.288E-01
RMM:   4    -0.290373371023E+03    0.68031E-04   -0.17798E-03   782   0.604E-02    0.213E-01
RMM:   5    -0.290373444441E+03   -0.73418E-04   -0.13187E-03   756   0.566E-02    0.941E-02
RMM:   6    -0.290373659955E+03   -0.21551E-03   -0.41988E-04   766   0.345E-02    0.506E-02
RMM:   7    -0.290373621670E+03    0.38285E-04   -0.18793E-04   703   0.181E-02    0.300E-02
RMM:   8    -0.290373618590E+03    0.30801E-05   -0.51772E-05   707   0.103E-02    0.212E-02
RMM:   9    -0.290373622286E+03   -0.36964E-05   -0.73617E-05   672   0.102E-02    0.119E-02
RMM:  10    -0.290373619094E+03    0.31924E-05   -0.96735E-06   596   0.523E-03    0.411E-03
RMM:  11    -0.290373619155E+03   -0.60960E-07   -0.55907E-06   563   0.334E-03
   9 F= -.29034364E+03 E0= -.29034364E+03  d E =-.239091E+00  mag=    -0.0000
       N       E                     dE             d eps       ncg     rms          rms(c)
RMM:   1    -0.290607573367E+03   -0.23395E+00   -0.26754E+01   758   0.865E+00    0.125E+00
RMM:   2    -0.290473177950E+03    0.13440E+00   -0.39712E-01   758   0.116E+00    0.762E-01
RMM:   3    -0.290470509658E+03    0.26683E-02   -0.47373E-02   859   0.282E-01    0.667E-01
RMM:   4    -0.290469048736E+03    0.14609E-02   -0.71408E-03   782   0.128E-01    0.506E-01
RMM:   5    -0.290470905315E+03   -0.18566E-02   -0.67292E-03   762   0.112E-01    0.242E-01
RMM:   6    -0.290471337980E+03   -0.43266E-03   -0.17139E-03   768   0.691E-02    0.791E-02
RMM:   7    -0.290471161638E+03    0.17634E-03   -0.64894E-04   777   0.330E-02    0.540E-02
RMM:   8    -0.290471127584E+03    0.34054E-04   -0.12297E-04   760   0.171E-02    0.374E-02
RMM:   9    -0.290471145403E+03   -0.17819E-04   -0.16879E-04   744   0.176E-02    0.188E-02
RMM:  10    -0.290471136088E+03    0.93146E-05   -0.24291E-05   655   0.802E-03    0.639E-03
RMM:  11    -0.290471136406E+03   -0.31821E-06   -0.11654E-05   610   0.398E-03    0.557E-03
RMM:  12    -0.290471135936E+03    0.47008E-06   -0.30425E-06   537   0.292E-03
  10 F= -.29043831E+03 E0= -.29043831E+03  d E =-.946692E-01  mag=    -0.0000
       N       E                     dE             d eps       ncg     rms          rms(c)
RMM:   1    -0.290540326852E+03   -0.69190E-01   -0.17470E+01   758   0.712E+00    0.967E-01
RMM:   2    -0.290455252999E+03    0.85074E-01   -0.24267E-01   758   0.891E-01    0.623E-01
RMM:   3    -0.290453976659E+03    0.12763E-02   -0.27292E-02   873   0.219E-01    0.519E-01
RMM:   4    -0.290453972536E+03    0.41234E-05   -0.49702E-03   783   0.105E-01    0.379E-01
RMM:   5    -0.290455064182E+03   -0.10916E-02   -0.38830E-03   766   0.899E-02    0.172E-01
RMM:   6    -0.290455257553E+03   -0.19337E-03   -0.92983E-04   768   0.512E-02    0.607E-02
RMM:   7    -0.290455137408E+03    0.12015E-03   -0.33180E-04   767   0.242E-02    0.432E-02
RMM:   8    -0.290455122079E+03    0.15329E-04   -0.83332E-05   720   0.139E-02    0.268E-02
RMM:   9    -0.290455135571E+03   -0.13492E-04   -0.78263E-05   704   0.127E-02    0.132E-02
RMM:  10    -0.290455130884E+03    0.46869E-05   -0.16160E-05   637   0.598E-03    0.455E-03
RMM:  11    -0.290455131243E+03   -0.35841E-06   -0.39096E-06   543   0.292E-03
  11 F= -.29042019E+03 E0= -.29042019E+03  d E =-.765524E-01  mag=     0.0000
       N       E                     dE             d eps       ncg     rms          rms(c)
RMM:   1    -0.290579668658E+03   -0.12454E+00   -0.13322E+01   760   0.639E+00    0.796E-01
RMM:   2    -0.290510295655E+03    0.69373E-01   -0.20140E-01   758   0.929E-01    0.594E-01
RMM:   3    -0.290509706748E+03    0.58891E-03   -0.24070E-02   879   0.211E-01    0.493E-01
RMM:   4    -0.290509390760E+03    0.31599E-03   -0.46764E-03   768   0.107E-01    0.307E-01
RMM:   5    -0.290509754801E+03   -0.36404E-03   -0.37276E-03   760   0.965E-02    0.991E-02
RMM:   6    -0.290509571255E+03    0.18355E-03   -0.39808E-04   775   0.317E-02    0.566E-02
RMM:   7    -0.290509490819E+03    0.80436E-04   -0.24439E-04   760   0.216E-02    0.362E-02
RMM:   8    -0.290509498067E+03   -0.72482E-05   -0.11530E-04   766   0.162E-02    0.178E-02
RMM:   9    -0.290509494107E+03    0.39595E-05   -0.13615E-05   654   0.597E-03    0.104E-02
RMM:  10    -0.290509493703E+03    0.40424E-06   -0.13450E-05   632   0.505E-03    0.387E-03
RMM:  11    -0.290509493797E+03   -0.94282E-07   -0.16705E-06   509   0.265E-03
  12 F= -.29047317E+03 E0= -.29047317E+03  d E =-.529783E-01  mag=     0.0000
       N       E                     dE             d eps       ncg     rms          rms(c)
RMM:   1    -0.290523375675E+03   -0.13882E-01   -0.42419E+00   760   0.366E+00    0.426E-01
RMM:   2    -0.290503679030E+03    0.19697E-01   -0.61541E-02   758   0.519E-01    0.327E-01
RMM:   3    -0.290503698380E+03   -0.19350E-04   -0.76529E-03   866   0.119E-01    0.253E-01
RMM:   4    -0.290503749097E+03   -0.50717E-04   -0.14411E-03   766   0.608E-02    0.141E-01
RMM:   5    -0.290503861839E+03   -0.11274E-03   -0.83701E-04   761   0.464E-02    0.521E-02
RMM:   6    -0.290503825076E+03    0.36763E-04   -0.85108E-05   750   0.150E-02    0.304E-02
RMM:   7    -0.290503808134E+03    0.16943E-04   -0.69658E-05   709   0.118E-02    0.175E-02
RMM:   8    -0.290503810177E+03   -0.20437E-05   -0.21152E-05   677   0.770E-03    0.903E-03
RMM:   9    -0.290503809955E+03    0.22186E-06   -0.45699E-06   547   0.329E-03
  13 F= -.29046671E+03 E0= -.29046671E+03  d E =-.465136E-01  mag=     0.0000
       N       E                     dE             d eps       ncg     rms          rms(c)
RMM:   1    -0.290729345258E+03   -0.22554E+00   -0.16760E+01   762   0.700E+00    0.759E-01
RMM:   2    -0.290649684053E+03    0.79661E-01   -0.22166E-01   765   0.871E-01    0.692E-01
RMM:   3    -0.290647922139E+03    0.17619E-02   -0.21154E-02   918   0.211E-01    0.567E-01
RMM:   4    -0.290647288698E+03    0.63344E-03   -0.80149E-03   764   0.126E-01    0.343E-01
RMM:   5    -0.290647985993E+03   -0.69729E-03   -0.61046E-03   756   0.116E-01    0.150E-01
RMM:   6    -0.290647980234E+03    0.57592E-05   -0.75437E-04   781   0.471E-02    0.954E-02
RMM:   7    -0.290647726524E+03    0.25371E-03   -0.59022E-04   756   0.294E-02    0.531E-02
RMM:   8    -0.290647709747E+03    0.16777E-04   -0.29385E-04   768   0.223E-02    0.265E-02
RMM:   9    -0.290647707816E+03    0.19304E-05   -0.26591E-05   690   0.943E-03    0.157E-02
RMM:  10    -0.290647706441E+03    0.13754E-05   -0.14927E-05   666   0.653E-03    0.519E-03
RMM:  11    -0.290647706560E+03   -0.11888E-06   -0.34078E-06   548   0.359E-03
  14 F= -.29061445E+03 E0= -.29061445E+03  d E =-.147737E+00  mag=    -0.0000
       N       E                     dE             d eps       ncg     rms          rms(c)
RMM:   1    -0.290717375296E+03   -0.69669E-01   -0.60758E+00   762   0.425E+00    0.475E-01
RMM:   2    -0.290691612397E+03    0.25763E-01   -0.80278E-02   765   0.522E-01    0.407E-01
RMM:   3    -0.290691197186E+03    0.41521E-03   -0.89300E-03   898   0.136E-01    0.310E-01
RMM:   4    -0.290691065361E+03    0.13183E-03   -0.25565E-03   777   0.724E-02    0.189E-01
RMM:   5    -0.290691181699E+03   -0.11634E-03   -0.15250E-03   758   0.607E-02    0.849E-02
RMM:   6    -0.290691248624E+03   -0.66925E-04   -0.22770E-04   762   0.265E-02    0.473E-02
RMM:   7    -0.290691195116E+03    0.53509E-04   -0.17548E-04   730   0.164E-02    0.277E-02
RMM:   8    -0.290691191406E+03    0.37097E-05   -0.72106E-05   707   0.115E-02    0.170E-02
RMM:   9    -0.290691188901E+03    0.25049E-05   -0.14818E-05   633   0.607E-03    0.843E-03
RMM:  10    -0.290691188669E+03    0.23230E-06   -0.42499E-06   550   0.399E-03
  15 F= -.29066025E+03 E0= -.29066025E+03  d E =-.193539E+00  mag=     0.0000
       N       E                     dE             d eps       ncg     rms          rms(c)
RMM:   1    -0.290803148128E+03   -0.11196E+00   -0.14784E+01   764   0.639E+00    0.806E-01
RMM:   2    -0.290722710665E+03    0.80437E-01   -0.19402E-01   764   0.739E-01    0.723E-01
RMM:   3    -0.290720611559E+03    0.20991E-02   -0.13837E-02   954   0.170E-01    0.607E-01
RMM:   4    -0.290722629736E+03   -0.20182E-02   -0.18550E-02   758   0.182E-01    0.305E-01
RMM:   5    -0.290723378087E+03   -0.74835E-03   -0.50457E-03   766   0.108E-01    0.253E-01
RMM:   6    -0.290722153125E+03    0.12250E-02   -0.10363E-03   766   0.433E-02    0.148E-01
RMM:   7    -0.290721874724E+03    0.27840E-03   -0.26128E-03   767   0.578E-02    0.508E-02
RMM:   8    -0.290721898494E+03   -0.23769E-04   -0.18459E-04   768   0.231E-02    0.343E-02
RMM:   9    -0.290721911150E+03   -0.12657E-04   -0.21460E-04   736   0.182E-02    0.270E-02
RMM:  10    -0.290721899574E+03    0.11576E-04   -0.98548E-05   685   0.140E-02    0.908E-03
RMM:  11    -0.290721898020E+03    0.15541E-05   -0.57568E-06   587   0.531E-03    0.732E-03
RMM:  12    -0.290721896689E+03    0.13315E-05   -0.23828E-06   527   0.241E-03    0.301E-03
RMM:  13    -0.290721896757E+03   -0.68061E-07   -0.11029E-06   461   0.171E-03
  16 F= -.29069376E+03 E0= -.29069376E+03  d E =-.335144E-01  mag=     0.0000
       N       E                     dE             d eps       ncg     rms          rms(c)
RMM:   1    -0.290722661286E+03   -0.76460E-03   -0.91571E-02   764   0.506E-01    0.647E-02
RMM:   2    -0.290722266192E+03    0.39509E-03   -0.96228E-04   766   0.545E-02    0.516E-02
RMM:   3    -0.290722277158E+03   -0.10966E-04   -0.90092E-05   776   0.147E-02    0.297E-02
RMM:   4    -0.290722299210E+03   -0.22052E-04   -0.24257E-05   652   0.915E-03    0.875E-03
RMM:   5    -0.290722301354E+03   -0.21442E-05   -0.24854E-06   524   0.300E-03    0.564E-03
RMM:   6    -0.290722301708E+03   -0.35363E-06   -0.11373E-06   476   0.216E-03
  17 F= -.29069392E+03 E0= -.29069392E+03  d E =-.336762E-01  mag=     0.0000
       N       E                     dE             d eps       ncg     rms          rms(c)
RMM:   1    -0.290763994925E+03   -0.41694E-01   -0.11092E+01   764   0.544E+00    0.696E-01
RMM:   2    -0.290712934337E+03    0.51061E-01   -0.14569E-01   766   0.687E-01    0.581E-01
RMM:   3    -0.290712035866E+03    0.89847E-03   -0.11510E-02   990   0.152E-01    0.495E-01
RMM:   4    -0.290714943869E+03   -0.29080E-02   -0.21863E-02   758   0.185E-01    0.272E-01
RMM:   5    -0.290713844107E+03    0.10998E-02   -0.13624E-03   777   0.597E-02    0.188E-01
RMM:   6    -0.290713286501E+03    0.55761E-03   -0.13729E-03   762   0.437E-02    0.902E-02
RMM:   7    -0.290713297702E+03   -0.11201E-04   -0.10376E-03   791   0.352E-02    0.294E-02
RMM:   8    -0.290713307867E+03   -0.10166E-04   -0.64962E-05   737   0.137E-02    0.199E-02
RMM:   9    -0.290713311367E+03   -0.34997E-05   -0.26899E-05   679   0.696E-03    0.148E-02
RMM:  10    -0.290713311629E+03   -0.26152E-06   -0.26980E-05   661   0.706E-03    0.642E-03
RMM:  11    -0.290713311108E+03    0.52061E-06   -0.22492E-06   525   0.312E-03
  18 F= -.29068483E+03 E0= -.29068483E+03  d E =0.909699E-02  mag=    -0.0000
       N       E                     dE             d eps       ncg     rms          rms(c)
RMM:   1    -0.290697067326E+03    0.16244E-01   -0.23694E+00   764   0.254E+00    0.312E-01
RMM:   2    -0.290687922155E+03    0.91452E-02   -0.27850E-02   766   0.308E-01    0.255E-01
RMM:   3    -0.290687882920E+03    0.39235E-04   -0.22316E-03   947   0.684E-02    0.194E-01
RMM:   4    -0.290688405614E+03   -0.52269E-03   -0.15412E-03   766   0.580E-02    0.751E-02
RMM:   5    -0.290688387611E+03    0.18003E-04   -0.15931E-04   753   0.193E-02    0.505E-02
RMM:   6    -0.290688378349E+03    0.92621E-05   -0.16205E-04   716   0.164E-02    0.208E-02
RMM:   7    -0.290688388983E+03   -0.10635E-04   -0.44786E-05   730   0.863E-03    0.116E-02
RMM:   8    -0.290688389003E+03   -0.19636E-07   -0.71942E-06   586   0.387E-03
  19 F= -.29065985E+03 E0= -.29065985E+03  d E =0.340704E-01  mag=     0.0000
       N       E                     dE             d eps       ncg     rms          rms(c)
RMM:   1    -0.290691359983E+03   -0.29710E-02   -0.11663E+01   765   0.564E+00    0.653E-01
RMM:   2    -0.290639512961E+03    0.51847E-01   -0.17030E-01   772   0.756E-01    0.539E-01
RMM:   3    -0.290638512234E+03    0.10007E-02   -0.16604E-02   970   0.174E-01    0.464E-01
RMM:   4    -0.290638399793E+03    0.11244E-03   -0.85835E-03   783   0.118E-01    0.306E-01
RMM:   5    -0.290640057167E+03   -0.16574E-02   -0.81646E-03   774   0.109E-01    0.258E-01
RMM:   6    -0.290638849736E+03    0.12074E-02   -0.10610E-03   777   0.495E-02    0.159E-01
RMM:   7    -0.290638344406E+03    0.50533E-03   -0.25232E-03   772   0.531E-02    0.392E-02
RMM:   8    -0.290638365843E+03   -0.21437E-04   -0.21969E-04   794   0.207E-02    0.285E-02
RMM:   9    -0.290638384085E+03   -0.18242E-04   -0.84158E-05   684   0.117E-02    0.269E-02
RMM:  10    -0.290638369782E+03    0.14303E-04   -0.10005E-04   713   0.124E-02    0.760E-03
RMM:  11    -0.290638370714E+03   -0.93182E-06   -0.11651E-05   601   0.514E-03    0.858E-03
RMM:  12    -0.290638368748E+03    0.19660E-05   -0.43156E-06   538   0.302E-03    0.241E-03
RMM:  13    -0.290638368778E+03   -0.29564E-07   -0.57705E-07   463   0.159E-03
  20 F= -.29060916E+03 E0= -.29060916E+03  d E =0.506950E-01  mag=     0.0000
       N       E                     dE             d eps       ncg     rms          rms(c)
RMM:   1    -0.290610015040E+03    0.28354E-01   -0.24083E+00   766   0.258E+00    0.279E-01
RMM:   2    -0.290599930330E+03    0.10085E-01   -0.31778E-02   772   0.330E-01    0.233E-01
RMM:   3    -0.290599904605E+03    0.25725E-04   -0.34763E-03   947   0.763E-02    0.185E-01
RMM:   4    -0.290600176807E+03   -0.27220E-03   -0.16858E-03   769   0.545E-02    0.103E-01
RMM:   5    -0.290600209012E+03   -0.32205E-04   -0.47103E-04   773   0.300E-02    0.681E-02
RMM:   6    -0.290600112799E+03    0.96213E-04   -0.17814E-04   720   0.168E-02    0.299E-02
RMM:   7    -0.290600104647E+03    0.81510E-05   -0.12324E-04   752   0.123E-02    0.147E-02
RMM:   8    -0.290600105210E+03   -0.56217E-06   -0.66952E-06   585   0.445E-03
  21 F= -.29057066E+03 E0= -.29057066E+03  d E =0.891898E-01  mag=     0.0000
       N       E                     dE             d eps       ncg     rms          rms(c)
RMM:   1    -0.290616780945E+03   -0.16676E-01   -0.86014E+00   766   0.488E+00    0.665E-01
RMM:   2    -0.290569572111E+03    0.47209E-01   -0.11483E-01   772   0.584E-01    0.439E-01
RMM:   3    -0.290568603621E+03    0.96849E-03   -0.14137E-02   935   0.149E-01    0.378E-01
RMM:   4    -0.290568550395E+03    0.53226E-04   -0.29185E-03   770   0.788E-02    0.267E-01
RMM:   5    -0.290569341770E+03   -0.79137E-03   -0.24310E-03   760   0.662E-02    0.125E-01
RMM:   6    -0.290569250911E+03    0.90859E-04   -0.43712E-04   760   0.330E-02    0.601E-02
RMM:   7    -0.290569166753E+03    0.84159E-04   -0.38252E-04   748   0.215E-02    0.313E-02
RMM:   8    -0.290569165657E+03    0.10959E-05   -0.49893E-05   734   0.111E-02    0.215E-02
RMM:   9    -0.290569167590E+03   -0.19329E-05   -0.30713E-05   670   0.859E-03    0.728E-03
RMM:  10    -0.290569168118E+03   -0.52846E-06   -0.71810E-06   579   0.432E-03
  22 F= -.29053755E+03 E0= -.29053755E+03  d E =0.331147E-01  mag=     0.0000
       N       E                     dE             d eps       ncg     rms          rms(c)
RMM:   1    -0.290574577483E+03   -0.54099E-02   -0.11688E+01   766   0.573E+00    0.800E-01
RMM:   2    -0.290511905535E+03    0.62672E-01   -0.16462E-01   774   0.686E-01    0.525E-01
RMM:   3    -0.290509492762E+03    0.24128E-02   -0.20387E-02   931   0.179E-01    0.448E-01
RMM:   4    -0.290509214663E+03    0.27810E-03   -0.37816E-03   775   0.883E-02    0.335E-01
RMM:   5    -0.290510508166E+03   -0.12935E-02   -0.37722E-03   768   0.793E-02    0.187E-01
RMM:   6    -0.290510309225E+03    0.19894E-03   -0.84396E-04   762   0.462E-02    0.801E-02
RMM:   7    -0.290510171377E+03    0.13785E-03   -0.65598E-04   762   0.279E-02    0.377E-02
RMM:   8    -0.290510169546E+03    0.18310E-05   -0.79406E-05   750   0.133E-02    0.261E-02
RMM:   9    -0.290510170728E+03   -0.11821E-05   -0.43631E-05   680   0.101E-02    0.927E-03
RMM:  10    -0.290510171518E+03   -0.78925E-06   -0.10720E-05   606   0.524E-03    0.439E-03
RMM:  11    -0.290510171048E+03    0.46957E-06   -0.13689E-06   507   0.225E-03
  23 F= -.29047590E+03 E0= -.29047590E+03  d E =0.947670E-01  mag=    -0.0000
       N       E                     dE             d eps       ncg     rms          rms(c)
RMM:   1    -0.290523545980E+03   -0.13374E-01   -0.87000E+00   764   0.497E+00    0.726E-01
RMM:   2    -0.290479397941E+03    0.44148E-01   -0.12347E-01   766   0.603E-01    0.482E-01
RMM:   3    -0.290477456228E+03    0.19417E-02   -0.16151E-02   916   0.164E-01    0.401E-01
RMM:   4    -0.290477356616E+03    0.99611E-04   -0.24141E-03   781   0.756E-02    0.302E-01
RMM:   5    -0.290478513190E+03   -0.11566E-02   -0.20431E-03   760   0.658E-02    0.134E-01
RMM:   6    -0.290478566529E+03   -0.53339E-04   -0.52397E-04   762   0.383E-02    0.448E-02
RMM:   7    -0.290478518466E+03    0.48064E-04   -0.17613E-04   767   0.167E-02    0.296E-02
RMM:   8    -0.290478512304E+03    0.61612E-05   -0.44517E-05   729   0.944E-03    0.172E-02
RMM:   9    -0.290478513674E+03   -0.13698E-05   -0.15887E-05   666   0.691E-03    0.606E-03
RMM:  10    -0.290478514292E+03   -0.61740E-06   -0.33583E-06   536   0.344E-03
  24 F= -.29044284E+03 E0= -.29044284E+03  d E =0.330597E-01  mag=    -0.0000
       N       E                     dE             d eps       ncg     rms          rms(c)
RMM:   1    -0.290475854222E+03    0.26595E-02   -0.39994E-02   764   0.338E-01    0.428E-02
RMM:   2    -0.290475639822E+03    0.21440E-03   -0.50590E-04   758   0.398E-02    0.306E-02
RMM:   3    -0.290475645118E+03   -0.52955E-05   -0.71237E-05   796   0.109E-02    0.231E-02
RMM:   4    -0.290475649042E+03   -0.39241E-05   -0.15361E-05   665   0.648E-03    0.135E-02
RMM:   5    -0.290475651911E+03   -0.28690E-05   -0.48340E-06   562   0.406E-03    0.336E-03
RMM:   6    -0.290475652057E+03   -0.14571E-06   -0.46684E-07   486   0.169E-03
  25 F= -.29043984E+03 E0= -.29043984E+03  d E =0.360524E-01  mag=    -0.0000
       N       E                     dE             d eps       ncg     rms          rms(c)
RMM:   1    -0.290498201854E+03   -0.22550E-01   -0.20849E+00   758   0.238E+00    0.277E-01
RMM:   2    -0.290492488288E+03    0.57136E-02   -0.30182E-02   768   0.342E-01    0.226E-01
RMM:   3    -0.290492262873E+03    0.22541E-03   -0.35700E-03   923   0.903E-02    0.180E-01
RMM:   4    -0.290492314887E+03   -0.52014E-04   -0.44770E-04   789   0.342E-02    0.126E-01
RMM:   5    -0.290492520628E+03   -0.20574E-03   -0.46451E-04   756   0.360E-02    0.348E-02
RMM:   6    -0.290492529773E+03   -0.91454E-05   -0.44266E-05   756   0.135E-02    0.182E-02
RMM:   7    -0.290492527332E+03    0.24408E-05   -0.20945E-05   702   0.660E-03    0.920E-03
RMM:   8    -0.290492527145E+03    0.18720E-06   -0.33597E-06   548   0.342E-03
  26 F= -.29045766E+03 E0= -.29045766E+03  d E =-.178178E-01  mag=     0.0000
       N       E                     dE             d eps       ncg     rms          rms(c)
RMM:   1    -0.290505880872E+03   -0.13354E-01   -0.54697E+00   758   0.383E+00    0.473E-01
RMM:   2    -0.290490474357E+03    0.15407E-01   -0.82399E-02   764   0.570E-01    0.401E-01
RMM:   3    -0.290488989380E+03    0.14850E-02   -0.10485E-02   893   0.147E-01    0.298E-01
RMM:   4    -0.290489065019E+03   -0.75638E-04   -0.10263E-03   792   0.541E-02    0.223E-01
RMM:   5    -0.290489719616E+03   -0.65460E-03   -0.15768E-03   756   0.645E-02    0.685E-02
RMM:   6    -0.290489725958E+03   -0.63424E-05   -0.13927E-04   782   0.233E-02    0.333E-02
RMM:   7    -0.290489712021E+03    0.13937E-04   -0.63188E-05   765   0.119E-02    0.159E-02
RMM:   8    -0.290489711266E+03    0.75472E-06   -0.14283E-05   698   0.617E-03    0.928E-03
RMM:   9    -0.290489710592E+03    0.67426E-06   -0.61285E-06   602   0.414E-03
  27 F= -.29045643E+03 E0= -.29045643E+03  d E =-.165875E-01  mag=    -0.0000
       N       E                     dE             d eps       ncg     rms          rms(c)
RMM:   1    -0.290505098797E+03   -0.15388E-01   -0.96305E-01   764   0.163E+00    0.189E-01
RMM:   2    -0.290502240495E+03    0.28583E-02   -0.12475E-02   770   0.199E-01    0.151E-01
RMM:   3    -0.290502242118E+03   -0.16233E-05   -0.14823E-03   941   0.555E-02    0.117E-01
RMM:   4    -0.290502250686E+03   -0.85677E-05   -0.33499E-04   774   0.266E-02    0.802E-02
RMM:   5    -0.290502305137E+03   -0.54451E-04   -0.24886E-04   762   0.235E-02    0.281E-02
RMM:   6    -0.290502296432E+03    0.87052E-05   -0.23738E-05   674   0.846E-03    0.167E-02
RMM:   7    -0.290502294654E+03    0.17782E-05   -0.47000E-05   686   0.793E-03    0.104E-02
RMM:   8    -0.290502293807E+03    0.84680E-06   -0.23742E-06   528   0.318E-03
  28 F= -.29046930E+03 E0= -.29046930E+03  d E =-.128682E-01  mag=     0.0000
       N       E                     dE             d eps       ncg     rms          rms(c)
RMM:   1    -0.290525868641E+03   -0.23574E-01   -0.46180E+00   764   0.359E+00    0.425E-01
RMM:   2    -0.290511272820E+03    0.14596E-01   -0.60743E-02   766   0.441E-01    0.343E-01
RMM:   3    -0.290511170001E+03    0.10282E-03   -0.82332E-03   943   0.124E-01    0.277E-01
RMM:   4    -0.290511003321E+03    0.16668E-03   -0.13364E-03   774   0.533E-02    0.202E-01
RMM:   5    -0.290511318209E+03   -0.31489E-03   -0.19800E-03   762   0.624E-02    0.798E-02
RMM:   6    -0.290511239747E+03    0.78462E-04   -0.14538E-04   769   0.220E-02    0.516E-02
RMM:   7    -0.290511195741E+03    0.44006E-04   -0.44796E-04   756   0.243E-02    0.257E-02
RMM:   8    -0.290511190365E+03    0.53758E-05   -0.19326E-05   653   0.800E-03    0.167E-02
RMM:   9    -0.290511197256E+03   -0.68910E-05   -0.60902E-05   685   0.104E-02    0.151E-02
RMM:  10    -0.290511191187E+03    0.60687E-05   -0.13883E-05   624   0.539E-03    0.367E-03
RMM:  11    -0.290511191286E+03   -0.98817E-07   -0.25822E-06   536   0.280E-03
  29 F= -.29047898E+03 E0= -.29047898E+03  d E =-.225456E-01  mag=    -0.0000
       N       E                     dE             d eps       ncg     rms          rms(c)
RMM:   1    -0.290545421948E+03   -0.34231E-01   -0.13142E+00   766   0.189E+00    0.248E-01
RMM:   2    -0.290541401233E+03    0.40207E-02   -0.15915E-02   765   0.219E-01    0.203E-01
RMM:   3    -0.290541488832E+03   -0.87599E-04   -0.19672E-03   900   0.596E-02    0.131E-01
RMM:   4    -0.290541659479E+03   -0.17065E-03   -0.66020E-04   756   0.412E-02    0.540E-02
RMM:   5    -0.290541613976E+03    0.45502E-04   -0.76140E-05   719   0.139E-02    0.238E-02
RMM:   6    -0.290541611688E+03    0.22882E-05   -0.26044E-05   690   0.706E-03    0.154E-02
RMM:   7    -0.290541611710E+03   -0.21726E-07   -0.78184E-06   615   0.443E-03
  30 F= -.29050974E+03 E0= -.29050974E+03  d E =-.307654E-01  mag=     0.0000
       N       E                     dE             d eps       ncg     rms          rms(c)
RMM:   1    -0.290648920105E+03   -0.10731E+00   -0.12042E+01   766   0.563E+00    0.748E-01
RMM:   2    -0.290604213836E+03    0.44706E-01   -0.15147E-01   761   0.667E-01    0.638E-01
RMM:   3    -0.290603831711E+03    0.38212E-03   -0.18494E-02   942   0.174E-01    0.480E-01
RMM:   4    -0.290605058652E+03   -0.12269E-02   -0.78782E-03   760   0.116E-01    0.171E-01
RMM:   5    -0.290604985803E+03    0.72849E-04   -0.16134E-03   762   0.626E-02    0.103E-01
RMM:   6    -0.290604685991E+03    0.29981E-03   -0.25606E-04   763   0.229E-02    0.601E-02
RMM:   7    -0.290604640043E+03    0.45948E-04   -0.22609E-04   752   0.181E-02    0.342E-02
RMM:   8    -0.290604642160E+03   -0.21172E-05   -0.55479E-05   730   0.113E-02    0.193E-02
RMM:   9    -0.290604645117E+03   -0.29574E-05   -0.26154E-05   664   0.798E-03    0.691E-03
RMM:  10    -0.290604644735E+03    0.38265E-06   -0.34594E-06   538   0.374E-03
  31 F= -.29057396E+03 E0= -.29057396E+03  d E =-.949778E-01  mag=     0.0000
       N       E                     dE             d eps       ncg     rms          rms(c)
RMM:   1    -0.290666723152E+03   -0.62078E-01   -0.49658E+00   760   0.370E+00    0.482E-01
RMM:   2    -0.290646973114E+03    0.19750E-01   -0.56463E-02   762   0.421E-01    0.390E-01
RMM:   3    -0.290646792998E+03    0.18012E-03   -0.64562E-03   839   0.118E-01    0.228E-01
RMM:   4    -0.290647071271E+03   -0.27827E-03   -0.16308E-03   782   0.613E-02    0.127E-01
RMM:   5    -0.290647075446E+03   -0.41745E-05   -0.66382E-04   766   0.415E-02    0.619E-02
RMM:   6    -0.290647111509E+03   -0.36064E-04   -0.92785E-05   770   0.149E-02    0.307E-02
RMM:   7    -0.290647107172E+03    0.43373E-05   -0.43978E-05   720   0.982E-03    0.146E-02
RMM:   8    -0.290647107127E+03    0.44916E-07   -0.23548E-05   675   0.740E-03    0.720E-03
RMM:   9    -0.290647106928E+03    0.19861E-06   -0.54288E-06   610   0.365E-03
  32 F= -.29061712E+03 E0= -.29061712E+03  d E =-.431678E-01  mag=     0.0000
       N       E                     dE             d eps       ncg     rms          rms(c)
RMM:   1    -0.290662298258E+03   -0.15191E-01   -0.12020E+00   760   0.183E+00    0.241E-01
RMM:   2    -0.290657716616E+03    0.45816E-02   -0.13457E-02   762   0.204E-01    0.190E-01
RMM:   3    -0.290657702628E+03    0.13989E-04   -0.16002E-03   842   0.599E-02    0.985E-02
RMM:   4    -0.290657779758E+03   -0.77130E-04   -0.25443E-04   759   0.278E-02    0.448E-02
RMM:   5    -0.290657812567E+03   -0.32809E-04   -0.85930E-05   731   0.139E-02    0.241E-02
RMM:   6    -0.290657815161E+03   -0.25938E-05   -0.18454E-05   676   0.708E-03    0.143E-02
RMM:   7    -0.290657813235E+03    0.19254E-05   -0.24403E-05   683   0.636E-03    0.642E-03
RMM:   8    -0.290657813139E+03    0.96412E-07   -0.20837E-06   522   0.293E-03
  33 F= -.29062823E+03 E0= -.29062823E+03  d E =-.542792E-01  mag=     0.0000
       N       E                     dE             d eps       ncg     rms          rms(c)
RMM:   1    -0.290730305320E+03   -0.72492E-01   -0.59887E+00   760   0.412E+00    0.527E-01
RMM:   2    -0.290689650405E+03    0.40655E-01   -0.64377E-02   758   0.445E-01    0.413E-01
RMM:   3    -0.290689415304E+03    0.23510E-03   -0.56501E-03   879   0.107E-01    0.286E-01
RMM:   4    -0.290690218986E+03   -0.80368E-03   -0.21374E-03   780   0.665E-02    0.160E-01
RMM:   5    -0.290690226146E+03   -0.71606E-05   -0.79216E-04   758   0.472E-02    0.601E-02
RMM:   6    -0.290690275116E+03   -0.48970E-04   -0.13472E-04   793   0.168E-02    0.336E-02
RMM:   7    -0.290690263300E+03    0.11816E-04   -0.40469E-05   702   0.900E-03    0.191E-02
RMM:   8    -0.290690264807E+03   -0.15070E-05   -0.22241E-05   682   0.785E-03    0.651E-03
RMM:   9    -0.290690265294E+03   -0.48653E-06   -0.31081E-06   542   0.321E-03
  34 F= -.29066006E+03 E0= -.29066006E+03  d E =-.318235E-01  mag=     0.0000
       N       E                     dE             d eps       ncg     rms          rms(c)
RMM:   1    -0.290764003009E+03   -0.73738E-01   -0.81844E+00   760   0.479E+00    0.618E-01
RMM:   2    -0.290708206197E+03    0.55797E-01   -0.89179E-02   758   0.526E-01    0.485E-01
RMM:   3    -0.290707729642E+03    0.47656E-03   -0.77101E-03   886   0.124E-01    0.351E-01
RMM:   4    -0.290708755868E+03   -0.10262E-02   -0.33149E-03   783   0.813E-02    0.206E-01
RMM:   5    -0.290708777996E+03   -0.22129E-04   -0.12353E-03   760   0.590E-02    0.726E-02
RMM:   6    -0.290708834857E+03   -0.56861E-04   -0.23506E-04   810   0.221E-02    0.414E-02
RMM:   7    -0.290708813822E+03    0.21035E-04   -0.64398E-05   713   0.110E-02    0.251E-02
RMM:   8    -0.290708814840E+03   -0.10179E-05   -0.29900E-05   688   0.910E-03    0.977E-03
RMM:   9    -0.290708816038E+03   -0.11982E-05   -0.70010E-06   588   0.455E-03    0.395E-03
RMM:  10    -0.290708816003E+03    0.35319E-07   -0.10242E-06   492   0.225E-03
  35 F= -.29067799E+03 E0= -.29067799E+03  d E =-.497599E-01  mag=     0.0000
       N       E                     dE             d eps       ncg     rms          rms(c)
RMM:   1    -0.290824461013E+03   -0.11564E+00   -0.87349E+00   764   0.493E+00    0.639E-01
RMM:   2    -0.290749654317E+03    0.74807E-01   -0.93769E-02   758   0.517E-01    0.479E-01
RMM:   3    -0.290748944975E+03    0.70934E-03   -0.72256E-03   899   0.114E-01    0.354E-01
RMM:   4    -0.290750095340E+03   -0.11504E-02   -0.31950E-03   774   0.801E-02    0.205E-01
RMM:   5    -0.290750240562E+03   -0.14522E-03   -0.11642E-03   760   0.542E-02    0.852E-02
RMM:   6    -0.290750254596E+03   -0.14034E-04   -0.23674E-04   779   0.219E-02    0.453E-02
RMM:   7    -0.290750227838E+03    0.26758E-04   -0.11956E-04   740   0.135E-02    0.290E-02
RMM:   8    -0.290750223241E+03    0.45975E-05   -0.23256E-05   672   0.784E-03    0.150E-02
RMM:   9    -0.290750225518E+03   -0.22774E-05   -0.16393E-05   646   0.651E-03    0.446E-03
RMM:  10    -0.290750225461E+03    0.57313E-07   -0.13438E-06   500   0.255E-03
  36 F= -.29071797E+03 E0= -.29071797E+03  d E =-.399789E-01  mag=    -0.0000
       N       E                     dE             d eps       ncg     rms          rms(c)
RMM:   1    -0.290777159840E+03   -0.26934E-01   -0.17129E+00   764   0.219E+00    0.276E-01
RMM:   2    -0.290763566718E+03    0.13593E-01   -0.16759E-02   758   0.221E-01    0.208E-01
RMM:   3    -0.290763601171E+03   -0.34453E-04   -0.14254E-03   864   0.513E-02    0.126E-01
RMM:   4    -0.290763870424E+03   -0.26925E-03   -0.35204E-04   756   0.298E-02    0.523E-02
RMM:   5    -0.290763888974E+03   -0.18550E-04   -0.10211E-04   724   0.156E-02    0.241E-02
RMM:   6    -0.290763892320E+03   -0.33457E-05   -0.14784E-05   665   0.587E-03    0.155E-02
RMM:   7    -0.290763891410E+03    0.91031E-06   -0.81882E-06   621   0.419E-03
  37 F= -.29073100E+03 E0= -.29073100E+03  d E =-.530032E-01  mag=     0.0000
       N       E                     dE             d eps       ncg     rms          rms(c)
RMM:   1    -0.290903768007E+03   -0.13988E+00   -0.10516E+01   758   0.533E+00    0.686E-01
RMM:   2    -0.290818995520E+03    0.84772E-01   -0.12686E-01   764   0.589E-01    0.511E-01
RMM:   3    -0.290818361493E+03    0.63403E-03   -0.12509E-02   916   0.150E-01    0.405E-01
RMM:   4    -0.290818673901E+03   -0.31241E-03   -0.33054E-03   786   0.800E-02    0.285E-01
RMM:   5    -0.290819533840E+03   -0.85994E-03   -0.22034E-03   761   0.691E-02    0.113E-01
RMM:   6    -0.290819534987E+03   -0.11471E-05   -0.29782E-04   784   0.295E-02    0.628E-02
RMM:   7    -0.290819456845E+03    0.78143E-04   -0.31483E-04   733   0.209E-02    0.300E-02
RMM:   8    -0.290819454192E+03    0.26526E-05   -0.42781E-05   718   0.995E-03    0.194E-02
RMM:   9    -0.290819456771E+03   -0.25794E-05   -0.26796E-05   678   0.783E-03    0.775E-03
RMM:  10    -0.290819456195E+03    0.57631E-06   -0.38149E-06   551   0.355E-03
  38 F= -.29078609E+03 E0= -.29078609E+03  d E =-.550975E-01  mag=    -0.0000
       N       E                     dE             d eps       ncg     rms          rms(c)
RMM:   1    -0.290875378952E+03   -0.55922E-01   -0.41775E+00   758   0.337E+00    0.422E-01
RMM:   2    -0.290843666984E+03    0.31712E-01   -0.46366E-02   763   0.359E-01    0.315E-01
RMM:   3    -0.290843737030E+03   -0.70047E-04   -0.49517E-03   913   0.937E-02    0.237E-01
RMM:   4    -0.290843935797E+03   -0.19877E-03   -0.12755E-03   781   0.515E-02    0.149E-01
RMM:   5    -0.290844210372E+03   -0.27458E-03   -0.46465E-04   760   0.347E-02    0.473E-02
RMM:   6    -0.290844230864E+03   -0.20492E-04   -0.67938E-05   717   0.136E-02    0.264E-02
RMM:   7    -0.290844222184E+03    0.86803E-05   -0.50865E-05   698   0.880E-03    0.164E-02
RMM:   8    -0.290844221950E+03    0.23361E-06   -0.76302E-06   605   0.480E-03
  39 F= -.29081057E+03 E0= -.29081057E+03  d E =-.795715E-01  mag=     0.0000
       N       E                     dE             d eps       ncg     rms          rms(c)
RMM:   1    -0.290889844556E+03   -0.45622E-01   -0.34532E+00   760   0.312E+00    0.346E-01
RMM:   2    -0.290869534878E+03    0.20310E-01   -0.45831E-02   762   0.373E-01    0.274E-01
RMM:   3    -0.290869688701E+03   -0.15382E-03   -0.60757E-03   944   0.104E-01    0.227E-01
RMM:   4    -0.290869701609E+03   -0.12908E-04   -0.85805E-04   797   0.426E-02    0.152E-01
RMM:   5    -0.290870056517E+03   -0.35491E-03   -0.86119E-04   756   0.460E-02    0.452E-02
RMM:   6    -0.290870035712E+03    0.20805E-04   -0.62720E-05   729   0.153E-02    0.302E-02
RMM:   7    -0.290870021809E+03    0.13902E-04   -0.13139E-04   692   0.141E-02    0.144E-02
RMM:   8    -0.290870020874E+03    0.93591E-06   -0.77585E-06   589   0.586E-03
  40 F= -.29083695E+03 E0= -.29083695E+03  d E =-.263761E-01  mag=    -0.0000
       N       E                     dE             d eps       ncg     rms          rms(c)
RMM:   1    -0.290886580732E+03   -0.16559E-01   -0.11403E+00   760   0.179E+00    0.199E-01
RMM:   2    -0.290879878170E+03    0.67026E-02   -0.14922E-02   762   0.212E-01    0.155E-01
RMM:   3    -0.290879977154E+03   -0.98984E-04   -0.19850E-03   945   0.599E-02    0.125E-01
RMM:   4    -0.290879993424E+03   -0.16270E-04   -0.30498E-04   796   0.255E-02    0.815E-02
RMM:   5    -0.290880124029E+03   -0.13060E-03   -0.24099E-04   756   0.247E-02    0.223E-02
RMM:   6    -0.290880118083E+03    0.59459E-05   -0.16594E-05   658   0.792E-03    0.153E-02
RMM:   7    -0.290880115651E+03    0.24322E-05   -0.49088E-05   663   0.852E-03    0.917E-03
RMM:   8    -0.290880114775E+03    0.87573E-06   -0.21592E-06   520   0.326E-03
  41 F= -.29084735E+03 E0= -.29084735E+03  d E =-.367838E-01  mag=    -0.0000
       N       E                     dE             d eps       ncg     rms          rms(c)
RMM:   1    -0.290899428248E+03   -0.19313E-01   -0.18150E+00   760   0.230E+00    0.264E-01
RMM:   2    -0.290889815705E+03    0.96125E-02   -0.26540E-02   768   0.270E-01    0.186E-01
RMM:   3    -0.290889976116E+03   -0.16041E-03   -0.36439E-03   960   0.781E-02    0.152E-01
RMM:   4    -0.290889952738E+03    0.23378E-04   -0.58240E-04   806   0.324E-02    0.117E-01
RMM:   5    -0.290890193628E+03   -0.24089E-03   -0.11655E-03   774   0.436E-02    0.674E-02
RMM:   6    -0.290890128856E+03    0.64771E-04   -0.86896E-05   692   0.165E-02    0.444E-02
RMM:   7    -0.290890095669E+03    0.33187E-04   -0.58362E-04   724   0.255E-02    0.252E-02
RMM:   8    -0.290890083906E+03    0.11763E-04   -0.21452E-05   632   0.799E-03    0.149E-02
RMM:   9    -0.290890082156E+03    0.17500E-05   -0.32346E-05   640   0.680E-03    0.524E-03
RMM:  10    -0.290890082062E+03    0.94131E-07   -0.51110E-06   549   0.366E-03
  42 F= -.29085765E+03 E0= -.29085765E+03  d E =-.102930E-01  mag=    -0.0000
       N       E                     dE             d eps       ncg     rms          rms(c)
RMM:   1    -0.290925374342E+03   -0.35292E-01   -0.55598E+00   760   0.402E+00    0.471E-01
RMM:   2    -0.290894746424E+03    0.30628E-01   -0.84026E-02   770   0.478E-01    0.329E-01
RMM:   3    -0.290895073947E+03   -0.32752E-03   -0.11020E-02   965   0.136E-01    0.277E-01
RMM:   4    -0.290894892946E+03    0.18100E-03   -0.16497E-03   805   0.537E-02    0.219E-01
RMM:   5    -0.290895678641E+03   -0.78570E-03   -0.42505E-03   774   0.814E-02    0.128E-01
RMM:   6    -0.290895521820E+03    0.15682E-03   -0.30600E-04   770   0.314E-02    0.902E-02
RMM:   7    -0.290895351261E+03    0.17056E-03   -0.18311E-03   763   0.450E-02    0.388E-02
RMM:   8    -0.290895327851E+03    0.23409E-04   -0.66808E-05   701   0.134E-02    0.236E-02
RMM:   9    -0.290895326876E+03    0.97468E-06   -0.99921E-05   678   0.118E-02    0.124E-02
RMM:  10    -0.290895323285E+03    0.35912E-05   -0.27876E-05   646   0.744E-03    0.451E-03
RMM:  11    -0.290895323049E+03    0.23580E-06   -0.14689E-06   512   0.297E-03
  43 F= -.29086346E+03 E0= -.29086346E+03  d E =-.161041E-01  mag=    -0.0000
       N       E                     dE             d eps       ncg     rms          rms(c)
RMM:   1    -0.290911379322E+03   -0.16056E-01   -0.20694E+00   764   0.251E+00    0.292E-01
RMM:   2    -0.290900027006E+03    0.11352E-01   -0.30424E-02   766   0.310E-01    0.212E-01
RMM:   3    -0.290900285583E+03   -0.25858E-03   -0.46750E-03   961   0.856E-02    0.176E-01
RMM:   4    -0.290900296984E+03   -0.11401E-04   -0.89423E-04   760   0.393E-02    0.109E-01
RMM:   5    -0.290900602978E+03   -0.30599E-03   -0.92028E-04   806   0.383E-02    0.769E-02
RMM:   6    -0.290900471695E+03    0.13128E-03   -0.16504E-04   706   0.181E-02    0.427E-02
RMM:   7    -0.290900459093E+03    0.12603E-04   -0.66128E-04   770   0.272E-02    0.307E-02
RMM:   8    -0.290900440296E+03    0.18797E-04   -0.29240E-05   643   0.922E-03    0.188E-02
RMM:   9    -0.290900435886E+03    0.44098E-05   -0.48017E-05   674   0.810E-03    0.536E-03
RMM:  10    -0.290900436056E+03   -0.16958E-06   -0.31222E-06   532   0.336E-03
  44 F= -.29086879E+03 E0= -.29086879E+03  d E =-.533509E-02  mag=     0.0000
       N       E                     dE             d eps       ncg     rms          rms(c)
RMM:   1    -0.290943324498E+03   -0.42889E-01   -0.76511E+00   764   0.481E+00    0.578E-01
RMM:   2    -0.290899543243E+03    0.43781E-01   -0.11689E-01   766   0.598E-01    0.415E-01
RMM:   3    -0.290900222849E+03   -0.67961E-03   -0.16942E-02   976   0.164E-01    0.356E-01
RMM:   4    -0.290899968056E+03    0.25479E-03   -0.25250E-03   760   0.649E-02    0.241E-01
RMM:   5    -0.290901502126E+03   -0.15341E-02   -0.52427E-03   786   0.892E-02    0.166E-01
RMM:   6    -0.290900885665E+03    0.61646E-03   -0.70972E-04   760   0.398E-02    0.929E-02
RMM:   7    -0.290900760935E+03    0.12473E-03   -0.21899E-03   790   0.501E-02    0.477E-02
RMM:   8    -0.290900731592E+03    0.29342E-04   -0.12447E-04   767   0.169E-02    0.356E-02
RMM:   9    -0.290900715398E+03    0.16194E-04   -0.18518E-04   692   0.153E-02    0.128E-02
RMM:  10    -0.290900713358E+03    0.20400E-05   -0.17635E-05   656   0.698E-03    0.390E-03
RMM:  11    -0.290900713554E+03   -0.19573E-06   -0.24631E-06   528   0.286E-03
  45 F= -.29086950E+03 E0= -.29086950E+03  d E =-.604181E-02  mag=    -0.0000
       N       E                     dE             d eps       ncg     rms          rms(c)
RMM:   1    -0.290910511267E+03   -0.97979E-02   -0.19105E+00   764   0.239E+00    0.279E-01
RMM:   2    -0.290901279337E+03    0.92319E-02   -0.24963E-02   772   0.282E-01    0.217E-01
RMM:   3    -0.290901499604E+03   -0.22027E-03   -0.36955E-03   970   0.792E-02    0.168E-01
RMM:   4    -0.290901597456E+03   -0.97852E-04   -0.73478E-04   760   0.380E-02    0.815E-02
RMM:   5    -0.290901737166E+03   -0.13971E-03   -0.26821E-04   790   0.244E-02    0.452E-02
RMM:   6    -0.290901689712E+03    0.47454E-04   -0.13153E-04   703   0.145E-02    0.205E-02
RMM:   7    -0.290901690950E+03   -0.12379E-05   -0.12239E-04   739   0.125E-02    0.203E-02
RMM:   8    -0.290901685080E+03    0.58701E-05   -0.70004E-06   575   0.500E-03    0.148E-02
RMM:   9    -0.290901684452E+03    0.62818E-06   -0.46738E-05   676   0.767E-03    0.711E-03
RMM:  10    -0.290901683540E+03    0.91112E-06   -0.22514E-06   524   0.291E-03
  46 F= -.29087039E+03 E0= -.29087039E+03  d E =-.891799E-03  mag=     0.0000
       N       E                     dE             d eps       ncg     rms          rms(c)
RMM:   1    -0.290916352962E+03   -0.14669E-01   -0.38283E+00   764   0.338E+00    0.396E-01
RMM:   2    -0.290897464284E+03    0.18889E-01   -0.50226E-02   770   0.398E-01    0.310E-01
RMM:   3    -0.290897816514E+03   -0.35223E-03   -0.73773E-03   970   0.112E-01    0.247E-01
RMM:   4    -0.290897945502E+03   -0.12899E-03   -0.12443E-03   758   0.482E-02    0.134E-01
RMM:   5    -0.290898302480E+03   -0.35698E-03   -0.71089E-04   778   0.408E-02    0.672E-02
RMM:   6    -0.290898206634E+03    0.95846E-04   -0.10542E-04   710   0.161E-02    0.416E-02
RMM:   7    -0.290898192386E+03    0.14248E-04   -0.47131E-04   761   0.239E-02    0.293E-02
RMM:   8    -0.290898179743E+03    0.12643E-04   -0.20480E-05   665   0.795E-03    0.216E-02
RMM:   9    -0.290898177639E+03    0.21038E-05   -0.93914E-05   676   0.109E-02    0.111E-02
RMM:  10    -0.290898175375E+03    0.22643E-05   -0.61498E-06   573   0.448E-03    0.383E-03
RMM:  11    -0.290898175357E+03    0.17943E-07   -0.33725E-06   538   0.286E-03
  47 F= -.29086677E+03 E0= -.29086677E+03  d E =0.272742E-02  mag=     0.0000
       N       E                     dE             d eps       ncg     rms          rms(c)
RMM:   1    -0.290907476113E+03   -0.93007E-02   -0.18717E+00   764   0.234E+00    0.273E-01
RMM:   2    -0.290898708738E+03    0.87674E-02   -0.20803E-02   772   0.254E-01    0.225E-01
RMM:   3    -0.290898856774E+03   -0.14804E-03   -0.25065E-03   954   0.692E-02    0.157E-01
RMM:   4    -0.290899006291E+03   -0.14952E-03   -0.44442E-04   764   0.321E-02    0.675E-02
RMM:   5    -0.290899111904E+03   -0.10561E-03   -0.17721E-04   758   0.211E-02    0.354E-02
RMM:   6    -0.290899089013E+03    0.22890E-04   -0.24707E-05   680   0.790E-03    0.202E-02
RMM:   7    -0.290899085060E+03    0.39535E-05   -0.35742E-05   696   0.765E-03    0.109E-02
RMM:   8    -0.290899084962E+03    0.97876E-07   -0.34138E-06   552   0.358E-03
  48 F= -.29086730E+03 E0= -.29086730E+03  d E =-.524066E-03  mag=    -0.0000
       N       E                     dE             d eps       ncg     rms          rms(c)
RMM:   1    -0.290923818916E+03   -0.24734E-01   -0.62789E+00   764   0.428E+00    0.504E-01
RMM:   2    -0.290893102681E+03    0.30716E-01   -0.70771E-02   772   0.467E-01    0.424E-01
RMM:   3    -0.290892875971E+03    0.22671E-03   -0.86012E-03   974   0.127E-01    0.345E-01
RMM:   4    -0.290893426379E+03   -0.55041E-03   -0.19723E-03   764   0.666E-02    0.194E-01
RMM:   5    -0.290893976888E+03   -0.55051E-03   -0.11432E-03   760   0.530E-02    0.103E-01
RMM:   6    -0.290893787736E+03    0.18915E-03   -0.17805E-04   756   0.203E-02    0.522E-02
RMM:   7    -0.290893744363E+03    0.43373E-04   -0.15063E-04   743   0.157E-02    0.241E-02
RMM:   8    -0.290893745575E+03   -0.12121E-05   -0.26145E-05   680   0.854E-03    0.131E-02
RMM:   9    -0.290893748734E+03   -0.31589E-05   -0.19259E-05   670   0.623E-03    0.850E-03
RMM:  10    -0.290893747191E+03    0.15432E-05   -0.11414E-05   610   0.465E-03    0.422E-03
RMM:  11    -0.290893746874E+03    0.31697E-06   -0.12492E-06   502   0.232E-03
  49 F= -.29086129E+03 E0= -.29086129E+03  d E =0.547985E-02  mag=     0.0000
       N       E                     dE             d eps       ncg     rms          rms(c)
RMM:   1    -0.290907269507E+03   -0.13522E-01   -0.23398E+00   764   0.262E+00    0.314E-01
RMM:   2    -0.290894932808E+03    0.12337E-01   -0.23647E-02   772   0.282E-01    0.266E-01
RMM:   3    -0.290894834308E+03    0.98501E-04   -0.22672E-03   922   0.714E-02    0.201E-01
RMM:   4    -0.290895236020E+03   -0.40171E-03   -0.97185E-04   760   0.474E-02    0.994E-02
RMM:   5    -0.290895296575E+03   -0.60555E-04   -0.22743E-04   756   0.245E-02    0.599E-02
RMM:   6    -0.290895265770E+03    0.30805E-04   -0.65078E-05   686   0.116E-02    0.249E-02
RMM:   7    -0.290895264838E+03    0.93185E-06   -0.28217E-05   672   0.765E-03    0.116E-02
RMM:   8    -0.290895266112E+03   -0.12738E-05   -0.56332E-06   588   0.421E-03    0.507E-03
RMM:   9    -0.290895266476E+03   -0.36449E-06   -0.18106E-06   514   0.265E-03
  50 F= -.29086293E+03 E0= -.29086293E+03  d E =-.163855E-02  mag=    -0.0000
       N       E                     dE             d eps       ncg     rms          rms(c)
RMM:   1    -0.290899585540E+03   -0.43194E-02   -0.11338E+00   764   0.183E+00    0.218E-01
RMM:   2    -0.290893606656E+03    0.59789E-02   -0.11297E-02   772   0.195E-01    0.180E-01
RMM:   3    -0.290893679600E+03   -0.72944E-04   -0.11236E-03   879   0.515E-02    0.123E-01
RMM:   4    -0.290893815028E+03   -0.13543E-03   -0.32182E-04   761   0.285E-02    0.569E-02
RMM:   5    -0.290893842348E+03   -0.27320E-04   -0.89355E-05   724   0.160E-02    0.316E-02
RMM:   6    -0.290893841510E+03    0.83736E-06   -0.21541E-05   668   0.706E-03    0.138E-02
RMM:   7    -0.290893841947E+03   -0.43646E-06   -0.76814E-06   613   0.443E-03
  51 F= -.29086160E+03 E0= -.29086160E+03  d E =-.312438E-03  mag=    -0.0000
       N       E                     dE             d eps       ncg     rms          rms(c)
RMM:   1    -0.290904515995E+03   -0.10674E-01   -0.23339E+00   760   0.262E+00    0.311E-01
RMM:   2    -0.290891356416E+03    0.13160E-01   -0.24128E-02   770   0.297E-01    0.271E-01
RMM:   3    -0.290891102281E+03    0.25413E-03   -0.21109E-03   905   0.724E-02    0.207E-01
RMM:   4    -0.290891595771E+03   -0.49349E-03   -0.12408E-03   762   0.524E-02    0.113E-01
RMM:   5    -0.290891655580E+03   -0.59810E-04   -0.25617E-04   756   0.267E-02    0.752E-02
RMM:   6    -0.290891616299E+03    0.39282E-04   -0.87483E-05   692   0.134E-02    0.306E-02
RMM:   7    -0.290891610765E+03    0.55333E-05   -0.39850E-05   686   0.894E-03    0.128E-02
RMM:   8    -0.290891611777E+03   -0.10112E-05   -0.70010E-06   600   0.489E-03    0.597E-03
RMM:   9    -0.290891612194E+03   -0.41710E-06   -0.26568E-06   532   0.307E-03
  52 F= -.29085958E+03 E0= -.29085958E+03  d E =0.202562E-02  mag=     0.0000
       N       E                     dE             d eps       ncg     rms          rms(c)
RMM:   1    -0.290892851103E+03   -0.12393E-02   -0.94972E-01   760   0.168E+00    0.198E-01
RMM:   2    -0.290887421504E+03    0.54296E-02   -0.95925E-03   770   0.188E-01    0.164E-01
RMM:   3    -0.290887450943E+03   -0.29439E-04   -0.92572E-04   867   0.487E-02    0.115E-01
RMM:   4    -0.290887586638E+03   -0.13569E-03   -0.29898E-04   762   0.277E-02    0.565E-02
RMM:   5    -0.290887601865E+03   -0.15227E-04   -0.67003E-05   716   0.147E-02    0.330E-02
RMM:   6    -0.290887604044E+03   -0.21796E-05   -0.21746E-05   663   0.707E-03    0.132E-02
RMM:   7    -0.290887603883E+03    0.16144E-06   -0.70769E-06   600   0.438E-03
  53 F= -.29085573E+03 E0= -.29085573E+03  d E =0.587433E-02  mag=    -0.0000
       N       E                     dE             d eps       ncg     rms          rms(c)
RMM:   1    -0.290890083862E+03   -0.24798E-02   -0.91254E-01   760   0.163E+00    0.190E-01
RMM:   2    -0.290884347777E+03    0.57361E-02   -0.92330E-03   768   0.187E-01    0.155E-01
RMM:   3    -0.290884373456E+03   -0.25679E-04   -0.94196E-04   859   0.477E-02    0.106E-01
RMM:   4    -0.290884464322E+03   -0.90866E-04   -0.22374E-04   758   0.248E-02    0.575E-02
RMM:   5    -0.290884487751E+03   -0.23429E-04   -0.62728E-05   707   0.143E-02    0.330E-02
RMM:   6    -0.290884493842E+03   -0.60911E-05   -0.20376E-05   664   0.740E-03    0.120E-02
RMM:   7    -0.290884493116E+03    0.72589E-06   -0.59423E-06   594   0.418E-03
  54 F= -.29085274E+03 E0= -.29085274E+03  d E =0.298576E-02  mag=    -0.0000
       N       E                     dE             d eps       ncg     rms          rms(c)
RMM:   1    -0.290890932195E+03   -0.64384E-02   -0.25265E+00   760   0.270E+00    0.314E-01
RMM:   2    -0.290874757368E+03    0.16175E-01   -0.26639E-02   766   0.316E-01    0.276E-01
RMM:   3    -0.290874410118E+03    0.34725E-03   -0.23115E-03   895   0.742E-02    0.206E-01
RMM:   4    -0.290874823693E+03   -0.41358E-03   -0.11341E-03   760   0.499E-02    0.123E-01
RMM:   5    -0.290874924519E+03   -0.10083E-03   -0.32049E-04   756   0.295E-02    0.811E-02
RMM:   6    -0.290874915491E+03    0.90279E-05   -0.89182E-05   714   0.154E-02    0.372E-02
RMM:   7    -0.290874901443E+03    0.14048E-04   -0.46254E-05   679   0.936E-03    0.156E-02
RMM:   8    -0.290874901220E+03    0.22378E-06   -0.13094E-05   638   0.607E-03    0.630E-03
RMM:   9    -0.290874902061E+03   -0.84131E-06   -0.45797E-06   584   0.366E-03
  55 F= -.29084338E+03 E0= -.29084338E+03  d E =0.123538E-01  mag=    -0.0000
       N       E                     dE             d eps       ncg     rms          rms(c)
RMM:   1    -0.290874399551E+03    0.50167E-03   -0.30379E-01   760   0.934E-01    0.105E-01
RMM:   2    -0.290872335646E+03    0.20639E-02   -0.30760E-03   766   0.108E-01    0.812E-02
RMM:   3    -0.290872379287E+03   -0.43640E-04   -0.29009E-04   813   0.268E-02    0.517E-02
RMM:   4    -0.290872388169E+03   -0.88825E-05   -0.57456E-05   736   0.125E-02    0.288E-02
RMM:   5    -0.290872397100E+03   -0.89311E-05   -0.20333E-05   664   0.829E-03    0.119E-02
RMM:   6    -0.290872399070E+03   -0.19695E-05   -0.30623E-06   538   0.341E-03    0.516E-03
RMM:   7    -0.290872398999E+03    0.70486E-07   -0.18812E-06   518   0.236E-03
  56 F= -.29084105E+03 E0= -.29084105E+03  d E =0.232963E-02  mag=     0.0000
       N       E                     dE             d eps       ncg     rms          rms(c)
RMM:   1    -0.290880883358E+03   -0.84843E-02   -0.27366E+00   761   0.279E+00    0.311E-01
RMM:   2    -0.290862316387E+03    0.18567E-01   -0.29213E-02   766   0.331E-01    0.273E-01
RMM:   3    -0.290861922953E+03    0.39343E-03   -0.23069E-03   884   0.743E-02    0.208E-01
RMM:   4    -0.290862403433E+03   -0.48048E-03   -0.11048E-03   760   0.493E-02    0.127E-01
RMM:   5    -0.290862502286E+03   -0.98853E-04   -0.29828E-04   759   0.283E-02    0.814E-02
RMM:   6    -0.290862489462E+03    0.12825E-04   -0.10452E-04   722   0.158E-02    0.291E-02
RMM:   7    -0.290862482132E+03    0.73297E-05   -0.36371E-05   678   0.829E-03    0.116E-02
RMM:   8    -0.290862482234E+03   -0.10175E-06   -0.83755E-06   618   0.491E-03
  57 F= -.29083164E+03 E0= -.29083164E+03  d E =0.117331E-01  mag=     0.0000
       N       E                     dE             d eps       ncg     rms          rms(c)
RMM:   1    -0.290911696833E+03   -0.49215E-01   -0.10979E+01   762   0.549E+00    0.677E-01
RMM:   2    -0.290836510392E+03    0.75186E-01   -0.14209E-01   766   0.709E-01    0.700E-01
RMM:   3    -0.290831352020E+03    0.51584E-02   -0.94035E-03   884   0.151E-01    0.528E-01
RMM:   4    -0.290831046563E+03    0.30546E-03   -0.62881E-03   758   0.111E-01    0.345E-01
RMM:   5    -0.290833365628E+03   -0.23191E-02   -0.67523E-03   760   0.110E-01    0.311E-01
RMM:   6    -0.290832188702E+03    0.11769E-02   -0.13461E-03   772   0.601E-02    0.127E-01
RMM:   7    -0.290832026235E+03    0.16247E-03   -0.76191E-04   754   0.345E-02    0.297E-02
RMM:   8    -0.290832030052E+03   -0.38173E-05   -0.58702E-05   694   0.151E-02    0.200E-02
RMM:   9    -0.290832030352E+03   -0.29930E-06   -0.34438E-05   675   0.803E-03    0.936E-03
RMM:  10    -0.290832030321E+03    0.30994E-07   -0.93728E-06   612   0.451E-03
  58 F= -.29080218E+03 E0= -.29080218E+03  d E =0.411944E-01  mag=     0.0000
       N       E                     dE             d eps       ncg     rms          rms(c)
RMM:   1    -0.290871238125E+03   -0.39208E-01   -0.31094E+00   760   0.298E+00    0.392E-01
RMM:   2    -0.290849921950E+03    0.21316E-01   -0.35052E-02   766   0.348E-01    0.270E-01
RMM:   3    -0.290849403951E+03    0.51800E-03   -0.25131E-03   934   0.832E-02    0.213E-01
RMM:   4    -0.290849791919E+03   -0.38797E-03   -0.87732E-04   766   0.486E-02    0.143E-01
RMM:   5    -0.290850094849E+03   -0.30293E-03   -0.47086E-04   758   0.330E-02    0.714E-02
RMM:   6    -0.290850013165E+03    0.81684E-04   -0.12537E-04   716   0.167E-02    0.215E-02
RMM:   7    -0.290850007356E+03    0.58092E-05   -0.32677E-05   692   0.899E-03    0.130E-02
RMM:   8    -0.290850007133E+03    0.22213E-06   -0.76204E-06   627   0.459E-03
  59 F= -.29081961E+03 E0= -.29081961E+03  d E =0.237686E-01  mag=    -0.0000
       N       E                     dE             d eps       ncg     rms          rms(c)
RMM:   1    -0.290853423820E+03   -0.34165E-02   -0.11264E+00   760   0.178E+00    0.191E-01
RMM:   2    -0.290845448277E+03    0.79755E-02   -0.12179E-02   766   0.209E-01    0.149E-01
RMM:   3    -0.290845436414E+03    0.11863E-04   -0.11262E-03   892   0.487E-02    0.116E-01
RMM:   4    -0.290845558476E+03   -0.12206E-03   -0.23969E-04   758   0.249E-02    0.703E-02
RMM:   5    -0.290845606497E+03   -0.48021E-04   -0.10348E-04   748   0.177E-02    0.298E-02
RMM:   6    -0.290845606980E+03   -0.48348E-06   -0.17325E-05   658   0.734E-03    0.111E-02
RMM:   7    -0.290845605671E+03    0.13093E-05   -0.10987E-05   616   0.445E-03    0.552E-03
RMM:   8    -0.290845605931E+03   -0.26018E-06   -0.14501E-06   504   0.244E-03
  60 F= -.29081524E+03 E0= -.29081524E+03  d E =0.436678E-02  mag=     0.0000
       N       E                     dE             d eps       ncg     rms          rms(c)
RMM:   1    -0.290897816646E+03   -0.52211E-01   -0.10123E+01   760   0.520E+00    0.666E-01
RMM:   2    -0.290830134703E+03    0.67682E-01   -0.13202E-01   766   0.665E-01    0.599E-01
RMM:   3    -0.290825718324E+03    0.44164E-02   -0.10858E-02   892   0.151E-01    0.443E-01
RMM:   4    -0.290825503790E+03    0.21453E-03   -0.32763E-03   760   0.818E-02    0.327E-01
RMM:   5    -0.290827760722E+03   -0.22569E-02   -0.52667E-03   764   0.931E-02    0.270E-01
RMM:   6    -0.290827076177E+03    0.68455E-03   -0.84066E-04   776   0.507E-02    0.128E-01
RMM:   7    -0.290826807045E+03    0.26913E-03   -0.86894E-04   750   0.349E-02    0.239E-02
RMM:   8    -0.290826811157E+03   -0.41124E-05   -0.50724E-05   696   0.128E-02    0.162E-02
RMM:   9    -0.290826812059E+03   -0.90127E-06   -0.23400E-05   680   0.616E-03    0.128E-02
RMM:  10    -0.290826811372E+03    0.68683E-06   -0.22162E-05   636   0.616E-03    0.858E-03
RMM:  11    -0.290826810375E+03    0.99662E-06   -0.24712E-06   532   0.309E-03
  61 F= -.29079652E+03 E0= -.29079652E+03  d E =0.230904E-01  mag=    -0.0000
       N       E                     dE             d eps       ncg     rms          rms(c)
RMM:   1    -0.290834429500E+03   -0.76181E-02   -0.17700E+00   758   0.223E+00    0.273E-01
RMM:   2    -0.290822957016E+03    0.11472E-01   -0.20306E-02   768   0.258E-01    0.196E-01
RMM:   3    -0.290822838332E+03    0.11868E-03   -0.22251E-03   924   0.644E-02    0.158E-01
RMM:   4    -0.290822978898E+03   -0.14057E-03   -0.42686E-04   762   0.304E-02    0.110E-01
RMM:   5    -0.290823195490E+03   -0.21659E-03   -0.41729E-04   758   0.302E-02    0.507E-02
RMM:   6    -0.290823185658E+03    0.98317E-05   -0.53056E-05   692   0.127E-02    0.253E-02
RMM:   7    -0.290823169577E+03    0.16081E-04   -0.78694E-05   684   0.102E-02    0.107E-02
RMM:   8    -0.290823169375E+03    0.20117E-06   -0.58653E-06   576   0.453E-03
  62 F= -.29079245E+03 E0= -.29079245E+03  d E =0.406635E-02  mag=     0.0000
       N       E                     dE             d eps       ncg     rms          rms(c)
RMM:   1    -0.290842490175E+03   -0.19321E-01   -0.49149E+00   758   0.369E+00    0.493E-01
RMM:   2    -0.290811326652E+03    0.31164E-01   -0.60843E-02   768   0.437E-01    0.360E-01
RMM:   3    -0.290810262268E+03    0.10644E-02   -0.64969E-03   930   0.110E-01    0.282E-01
RMM:   4    -0.290810440776E+03   -0.17851E-03   -0.13227E-03   762   0.525E-02    0.214E-01
RMM:   5    -0.290811332585E+03   -0.89181E-03   -0.16993E-03   766   0.557E-02    0.130E-01
RMM:   6    -0.290811290842E+03    0.41743E-04   -0.25039E-04   758   0.279E-02    0.705E-02
RMM:   7    -0.290811177823E+03    0.11302E-03   -0.37390E-04   726   0.224E-02    0.186E-02
RMM:   8    -0.290811177430E+03    0.39365E-06   -0.29934E-05   684   0.959E-03    0.116E-02
RMM:   9    -0.290811178856E+03   -0.14264E-05   -0.16105E-05   638   0.557E-03    0.799E-03
RMM:  10    -0.290811179171E+03   -0.31472E-06   -0.16403E-05   632   0.513E-03    0.618E-03
RMM:  11    -0.290811178310E+03    0.86089E-06   -0.25645E-06   530   0.284E-03
  63 F= -.29077984E+03 E0= -.29077984E+03  d E =0.166729E-01  mag=     0.0000
       N       E                     dE             d eps       ncg     rms          rms(c)
RMM:   1    -0.290814561724E+03   -0.33826E-02   -0.15710E+00   760   0.211E+00    0.274E-01
RMM:   2    -0.290804433013E+03    0.10129E-01   -0.17829E-02   769   0.251E-01    0.195E-01
RMM:   3    -0.290804307483E+03    0.12553E-03   -0.17884E-03   932   0.594E-02    0.159E-01
RMM:   4    -0.290804560835E+03   -0.25335E-03   -0.45141E-04   766   0.323E-02    0.107E-01
RMM:   5    -0.290804773625E+03   -0.21279E-03   -0.32141E-04   756   0.289E-02    0.452E-02
RMM:   6    -0.290804749434E+03    0.24191E-04   -0.37185E-05   672   0.108E-02    0.212E-02
RMM:   7    -0.290804739822E+03    0.96125E-05   -0.39920E-05   672   0.778E-03    0.931E-03
RMM:   8    -0.290804740169E+03   -0.34694E-06   -0.43061E-06   564   0.401E-03
  64 F= -.29077327E+03 E0= -.29077327E+03  d E =0.657596E-02  mag=     0.0000
       N       E                     dE             d eps       ncg     rms          rms(c)
RMM:   1    -0.290868804034E+03   -0.64064E-01   -0.13905E+01   761   0.610E+00    0.108E+00
RMM:   2    -0.290785981276E+03    0.82823E-01   -0.22581E-01   769   0.811E-01    0.828E-01
RMM:   3    -0.290775026898E+03    0.10954E-01   -0.17819E-02   864   0.207E-01    0.577E-01
RMM:   4    -0.290774013474E+03    0.10134E-02   -0.49250E-03   764   0.101E-01    0.438E-01
RMM:   5    -0.290779828059E+03   -0.58146E-02   -0.13487E-02   758   0.139E-01    0.432E-01
RMM:   6    -0.290777426078E+03    0.24020E-02   -0.20498E-03   772   0.748E-02    0.195E-01
RMM:   7    -0.290776770821E+03    0.65526E-03   -0.18067E-03   756   0.508E-02    0.371E-02
RMM:   8    -0.290776792133E+03   -0.21313E-04   -0.12850E-04   722   0.225E-02    0.258E-02
RMM:   9    -0.290776791398E+03    0.73489E-06   -0.66607E-05   716   0.104E-02    0.172E-02
RMM:  10    -0.290776788922E+03    0.24762E-05   -0.34874E-05   679   0.771E-03    0.891E-03
RMM:  11    -0.290776788782E+03    0.14023E-06   -0.45727E-06   556   0.379E-03
  65 F= -.29074498E+03 E0= -.29074498E+03  d E =0.348608E-01  mag=     0.0000
       N       E                     dE             d eps       ncg     rms          rms(c)
RMM:   1    -0.290777088089E+03   -0.29917E-03   -0.77661E-01   760   0.151E+00    0.180E-01
RMM:   2    -0.290772635842E+03    0.44522E-02   -0.85117E-03   762   0.175E-01    0.141E-01
RMM:   3    -0.290772592849E+03    0.42994E-04   -0.78261E-04   874   0.442E-02    0.105E-01
RMM:   4    -0.290772657131E+03   -0.64282E-04   -0.35165E-04   756   0.303E-02    0.516E-02
RMM:   5    -0.290772666180E+03   -0.90493E-05   -0.96984E-05   744   0.159E-02    0.199E-02
RMM:   6    -0.290772665718E+03    0.46206E-06   -0.12432E-05   648   0.591E-03    0.121E-02
RMM:   7    -0.290772666324E+03   -0.60610E-06   -0.73064E-06   636   0.417E-03
  66 F= -.29074140E+03 E0= -.29074140E+03  d E =0.358118E-02  mag=    -0.0000
       N       E                     dE             d eps       ncg     rms          rms(c)
RMM:   1    -0.290774572777E+03   -0.19071E-02   -0.55914E+00   760   0.398E+00    0.512E-01
RMM:   2    -0.290743011184E+03    0.31562E-01   -0.67930E-02   762   0.483E-01    0.422E-01
RMM:   3    -0.290741609643E+03    0.14015E-02   -0.58895E-03   904   0.118E-01    0.333E-01
RMM:   4    -0.290741904819E+03   -0.29518E-03   -0.25244E-03   758   0.756E-02    0.219E-01
RMM:   5    -0.290742590366E+03   -0.68555E-03   -0.23297E-03   756   0.712E-02    0.116E-01
RMM:   6    -0.290742348304E+03    0.24206E-03   -0.31111E-04   758   0.286E-02    0.469E-02
RMM:   7    -0.290742326869E+03    0.21435E-04   -0.14657E-04   754   0.161E-02    0.225E-02
RMM:   8    -0.290742329742E+03   -0.28731E-05   -0.26170E-05   693   0.907E-03    0.929E-03
RMM:   9    -0.290742329758E+03   -0.15802E-07   -0.61288E-06   584   0.416E-03
  67 F= -.29071238E+03 E0= -.29071238E+03  d E =0.325992E-01  mag=     0.0000
       N       E                     dE             d eps       ncg     rms          rms(c)
RMM:   1    -0.290740599270E+03    0.17305E-02   -0.33942E-01   762   0.984E-01    0.110E-01
RMM:   2    -0.290738398159E+03    0.22011E-02   -0.33405E-03   766   0.104E-01    0.863E-02
RMM:   3    -0.290738414511E+03   -0.16352E-04   -0.31576E-04   846   0.265E-02    0.549E-02
RMM:   4    -0.290738455007E+03   -0.40496E-04   -0.81852E-05   742   0.149E-02    0.248E-02
RMM:   5    -0.290738458947E+03   -0.39394E-05   -0.23745E-05   670   0.811E-03    0.105E-02
RMM:   6    -0.290738459070E+03   -0.12341E-06   -0.26557E-06   534   0.289E-03
  68 F= -.29070854E+03 E0= -.29070854E+03  d E =0.384678E-02  mag=     0.0000
       N       E                     dE             d eps       ncg     rms          rms(c)
RMM:   1    -0.290742623434E+03   -0.41645E-02   -0.30548E+00   762   0.295E+00    0.339E-01
RMM:   2    -0.290722643008E+03    0.19980E-01   -0.31831E-02   766   0.316E-01    0.274E-01
RMM:   3    -0.290722337880E+03    0.30513E-03   -0.30130E-03   940   0.802E-02    0.216E-01
RMM:   4    -0.290722793924E+03   -0.45604E-03   -0.99085E-04   764   0.478E-02    0.136E-01
RMM:   5    -0.290723049044E+03   -0.25512E-03   -0.60896E-04   756   0.385E-02    0.569E-02
RMM:   6    -0.290723023116E+03    0.25928E-04   -0.67593E-05   708   0.146E-02    0.309E-02
RMM:   7    -0.290723006655E+03    0.16461E-04   -0.55829E-05   686   0.957E-03    0.147E-02
RMM:   8    -0.290723007620E+03   -0.96529E-06   -0.10679E-05   628   0.538E-03    0.777E-03
RMM:   9    -0.290723008253E+03   -0.63274E-06   -0.30816E-06   536   0.309E-03
  69 F= -.29069314E+03 E0= -.29069314E+03  d E =0.192461E-01  mag=    -0.0000
       N       E                     dE             d eps       ncg     rms          rms(c)
RMM:   1    -0.290755622985E+03   -0.32615E-01   -0.12196E+01   762   0.586E+00    0.744E-01
RMM:   2    -0.290677385060E+03    0.78238E-01   -0.15021E-01   766   0.671E-01    0.635E-01
RMM:   3    -0.290673448532E+03    0.39365E-02   -0.13183E-02   924   0.170E-01    0.493E-01
RMM:   4    -0.290673475856E+03   -0.27324E-04   -0.38697E-03   770   0.906E-02    0.369E-01
RMM:   5    -0.290676242714E+03   -0.27669E-02   -0.70184E-03   758   0.115E-01    0.231E-01
RMM:   6    -0.290675605357E+03    0.63736E-03   -0.76830E-04   780   0.496E-02    0.123E-01
RMM:   7    -0.290675317457E+03    0.28790E-03   -0.73684E-04   752   0.338E-02    0.404E-02
RMM:   8    -0.290675317375E+03    0.82044E-07   -0.92466E-05   739   0.157E-02    0.235E-02
RMM:   9    -0.290675318204E+03   -0.82887E-06   -0.35282E-05   697   0.809E-03    0.116E-02
RMM:  10    -0.290675317502E+03    0.70147E-06   -0.14046E-05   630   0.526E-03    0.466E-03
RMM:  11    -0.290675317430E+03    0.72636E-07   -0.14604E-06   508   0.253E-03
  70 F= -.29064557E+03 E0= -.29064557E+03  d E =0.668120E-01  mag=     0.0000
       N       E                     dE             d eps       ncg     rms          rms(c)
RMM:   1    -0.290706309013E+03   -0.30992E-01   -0.16730E+00   762   0.220E+00    0.252E-01
RMM:   2    -0.290695252870E+03    0.11056E-01   -0.16878E-02   766   0.239E-01    0.197E-01
RMM:   3    -0.290695237017E+03    0.15853E-04   -0.16635E-03   894   0.563E-02    0.153E-01
RMM:   4    -0.290695509223E+03   -0.27221E-03   -0.57298E-04   766   0.375E-02    0.774E-02
RMM:   5    -0.290695558909E+03   -0.49686E-04   -0.15825E-04   754   0.208E-02    0.323E-02
RMM:   6    -0.290695561071E+03   -0.21620E-05   -0.29372E-05   680   0.873E-03    0.151E-02
RMM:   7    -0.290695560126E+03    0.94512E-06   -0.82491E-06   632   0.444E-03
  71 F= -.29066578E+03 E0= -.29066578E+03  d E =0.466078E-01  mag=     0.0000
       N       E                     dE             d eps       ncg     rms          rms(c)
RMM:   1    -0.290697551904E+03   -0.19908E-02   -0.29751E-01   760   0.916E-01    0.963E-02
RMM:   2    -0.290695950917E+03    0.16010E-02   -0.33382E-03   764   0.103E-01    0.758E-02
RMM:   3    -0.290695956696E+03   -0.57782E-05   -0.35425E-04   900   0.271E-02    0.520E-02
RMM:   4    -0.290695995314E+03   -0.38618E-04   -0.10786E-04   752   0.164E-02    0.222E-02
RMM:   5    -0.290695993853E+03    0.14610E-05   -0.25542E-05   680   0.766E-03    0.101E-02
RMM:   6    -0.290695992363E+03    0.14902E-05   -0.42013E-06   556   0.319E-03    0.612E-03
RMM:   7    -0.290695992346E+03    0.17384E-07   -0.40270E-06   542   0.287E-03
  72 F= -.29066583E+03 E0= -.29066583E+03  d E =-.525803E-04  mag=    -0.0000
       N       E                     dE             d eps       ncg     rms          rms(c)
RMM:   1    -0.290703043813E+03   -0.70515E-02   -0.26842E+00   760   0.274E+00    0.292E-01
RMM:   2    -0.290688866686E+03    0.14177E-01   -0.30265E-02   766   0.310E-01    0.228E-01
RMM:   3    -0.290688915360E+03   -0.48675E-04   -0.33629E-03   924   0.803E-02    0.167E-01
RMM:   4    -0.290689082421E+03   -0.16706E-03   -0.96735E-04   772   0.466E-02    0.982E-02
RMM:   5    -0.290689130643E+03   -0.48222E-04   -0.39753E-04   760   0.310E-02    0.331E-02
RMM:   6    -0.290689123518E+03    0.71252E-05   -0.41319E-05   700   0.109E-02    0.226E-02
RMM:   7    -0.290689113511E+03    0.10007E-04   -0.56737E-05   698   0.893E-03    0.123E-02
RMM:   8    -0.290689114060E+03   -0.54890E-06   -0.83670E-06   606   0.487E-03
  73 F= -.29065785E+03 E0= -.29065785E+03  d E =0.792844E-02  mag=    -0.0000
       N       E                     dE             d eps       ncg     rms          rms(c)
RMM:   1    -0.290697210321E+03   -0.80968E-02   -0.10750E+01   760   0.555E+00    0.607E-01
RMM:   2    -0.290639613069E+03    0.57597E-01   -0.12988E-01   768   0.643E-01    0.470E-01
RMM:   3    -0.290638868781E+03    0.74429E-03   -0.15443E-02   920   0.167E-01    0.394E-01
RMM:   4    -0.290638755533E+03    0.11325E-03   -0.27227E-03   769   0.788E-02    0.276E-01
RMM:   5    -0.290639899846E+03   -0.11443E-02   -0.33037E-03   758   0.819E-02    0.105E-01
RMM:   6    -0.290639887767E+03    0.12080E-04   -0.38745E-04   790   0.339E-02    0.623E-02
RMM:   7    -0.290639768255E+03    0.11951E-03   -0.37090E-04   748   0.229E-02    0.288E-02
RMM:   8    -0.290639769511E+03   -0.12560E-05   -0.72223E-05   760   0.126E-02    0.206E-02
RMM:   9    -0.290639770271E+03   -0.75989E-06   -0.26679E-05   664   0.789E-03    0.924E-03
RMM:  10    -0.290639769193E+03    0.10777E-05   -0.79261E-06   605   0.510E-03    0.325E-03
RMM:  11    -0.290639769144E+03    0.48663E-07   -0.26713E-06   536   0.262E-03
  74 F= -.29060633E+03 E0= -.29060633E+03  d E =0.594457E-01  mag=     0.0000
       N       E                     dE             d eps       ncg     rms          rms(c)
RMM:   1    -0.290694958864E+03   -0.55190E-01   -0.38705E+00   760   0.329E+00    0.353E-01
RMM:   2    -0.290674914641E+03    0.20044E-01   -0.45282E-02   766   0.375E-01    0.297E-01
RMM:   3    -0.290674675523E+03    0.23912E-03   -0.51270E-03   938   0.987E-02    0.244E-01
RMM:   4    -0.290674816309E+03   -0.14079E-03   -0.12410E-03   768   0.521E-02    0.147E-01
RMM:   5    -0.290675139709E+03   -0.32340E-03   -0.10321E-03   756   0.492E-02    0.547E-02
RMM:   6    -0.290675107643E+03    0.32066E-04   -0.72700E-05   746   0.156E-02    0.333E-02
RMM:   7    -0.290675095292E+03    0.12351E-04   -0.81614E-05   736   0.114E-02    0.149E-02
RMM:   8    -0.290675094495E+03    0.79715E-06   -0.98186E-06   638   0.559E-03
  75 F= -.29064302E+03 E0= -.29064302E+03  d E =0.227594E-01  mag=    -0.0000
       N       E                     dE             d eps       ncg     rms          rms(c)
RMM:   1    -0.290674704762E+03    0.39053E-03   -0.34935E-01   762   0.994E-01    0.104E-01
RMM:   2    -0.290672831501E+03    0.18733E-02   -0.38816E-03   770   0.105E-01    0.838E-02
RMM:   3    -0.290672836249E+03   -0.47481E-05   -0.47358E-04   876   0.295E-02    0.534E-02
RMM:   4    -0.290672859952E+03   -0.23703E-04   -0.86789E-05   752   0.152E-02    0.166E-02
RMM:   5    -0.290672866522E+03   -0.65700E-05   -0.13601E-05   649   0.646E-03    0.905E-03
RMM:   6    -0.290672865673E+03    0.84875E-06   -0.47768E-06   564   0.304E-03
[...]
RMM:   1    -0.290792544215E+03   -0.28330E-02   -0.62708E-02   762   0.425E-01    0.455E-02
RMM:   2    -0.290792067437E+03    0.47678E-03   -0.58294E-04   762   0.431E-02    0.358E-02
RMM:   3    -0.290792070593E+03   -0.31559E-05   -0.45380E-05   728   0.978E-03    0.213E-02
RMM:   4    -0.290792076865E+03   -0.62722E-05   -0.12852E-05   632   0.633E-03    0.791E-03
RMM:   5    -0.290792076982E+03   -0.11718E-06   -0.22485E-06   522   0.296E-03    0.397E-03
RMM:   6    -0.290792076948E+03    0.34721E-07   -0.44073E-07   442   0.179E-03
 218 F= -.29076015E+03 E0= -.29076015E+03  d E =-.310084E-02  mag=    -0.0000
       N       E                     dE             d eps       ncg     rms          rms(c)
RMM:   1    -0.290798647032E+03   -0.65700E-02   -0.25090E-01   762   0.850E-01    0.914E-02
RMM:   2    -0.290796731189E+03    0.19158E-02   -0.23411E-03   768   0.863E-02    0.721E-02
RMM:   3    -0.290796741206E+03   -0.10017E-04   -0.18316E-04   820   0.192E-02    0.492E-02
RMM:   4    -0.290796771898E+03   -0.30692E-04   -0.62457E-05   702   0.131E-02    0.189E-02
RMM:   5    -0.290796773037E+03   -0.11391E-05   -0.12855E-05   660   0.615E-03    0.926E-03
RMM:   6    -0.290796772630E+03    0.40778E-06   -0.16819E-06   516   0.250E-03
 219 F= -.29076476E+03 E0= -.29076476E+03  d E =-.771656E-02  mag=    -0.0000
       N       E                     dE             d eps       ncg     rms          rms(c)
RMM:   1    -0.290797441803E+03   -0.66877E-03   -0.46647E-03   756   0.115E-01    0.129E-02
RMM:   2    -0.290797405984E+03    0.35819E-04   -0.44038E-05   662   0.119E-02    0.998E-03
RMM:   3    -0.290797406892E+03   -0.90857E-06   -0.32808E-06   524   0.290E-03    0.529E-03
RMM:   4    -0.290797407713E+03   -0.82088E-06   -0.55588E-07   448   0.185E-03    0.129E-03
RMM:   5    -0.290797407754E+03   -0.41082E-07   -0.17293E-07   406   0.116E-03    0.891E-04
RMM:   6    -0.290797407745E+03    0.95715E-08   -0.67945E-08   328   0.769E-04
 220 F= -.29076542E+03 E0= -.29076542E+03  d E =-.652724E-03  mag=     0.0000
       N       E                     dE             d eps       ncg     rms          rms(c)
RMM:   1    -0.290799612488E+03   -0.22047E-02   -0.41505E-02   762   0.345E-01    0.369E-02
RMM:   2    -0.290799294113E+03    0.31837E-03   -0.38239E-04   756   0.348E-02    0.287E-02
RMM:   3    -0.290799296348E+03   -0.22344E-05   -0.29065E-05   692   0.785E-03    0.166E-02
RMM:   4    -0.290799300444E+03   -0.40964E-05   -0.76115E-06   602   0.506E-03    0.632E-03
RMM:   5    -0.290799300503E+03   -0.59015E-07   -0.13958E-06   486   0.252E-03    0.300E-03
RMM:   6    -0.290799300527E+03   -0.23430E-07   -0.29205E-07   438   0.153E-03
 221 F= -.29076731E+03 E0= -.29076731E+03  d E =-.255106E-02  mag=    -0.0000
       N       E                     dE             d eps       ncg     rms          rms(c)
RMM:   1    -0.290804288203E+03   -0.49877E-02   -0.16608E-01   762   0.690E-01    0.741E-02
RMM:   2    -0.290803013559E+03    0.12746E-02   -0.15355E-03   768   0.697E-02    0.579E-02
RMM:   3    -0.290803020625E+03   -0.70662E-05   -0.11805E-04   812   0.154E-02    0.380E-02
RMM:   4    -0.290803037078E+03   -0.16452E-04   -0.36473E-05   678   0.103E-02    0.146E-02
RMM:   5    -0.290803038006E+03   -0.92852E-06   -0.77536E-06   616   0.480E-03    0.690E-03
RMM:   6    -0.290803037888E+03    0.11875E-06   -0.90467E-07   476   0.215E-03
 222 F= -.29077106E+03 E0= -.29077106E+03  d E =-.630101E-02  mag=    -0.0000
       N       E                     dE             d eps       ncg     rms          rms(c)
RMM:   1    -0.290801202707E+03    0.18353E-02   -0.64176E-02   758   0.429E-01    0.456E-02
RMM:   2    -0.290800706840E+03    0.49587E-03   -0.58946E-04   762   0.433E-02    0.354E-02
RMM:   3    -0.290800710160E+03   -0.33203E-05   -0.41712E-05   712   0.954E-03    0.190E-02
RMM:   4    -0.290800715848E+03   -0.56879E-05   -0.91091E-06   598   0.574E-03    0.446E-03
RMM:   5    -0.290800716180E+03   -0.33190E-06   -0.70756E-07   438   0.212E-03    0.290E-03
RMM:   6    -0.290800716122E+03    0.58044E-07   -0.76102E-07   412   0.157E-03
 223 F= -.29076873E+03 E0= -.29076873E+03  d E =-.396588E-02  mag=     0.0000
       N       E                     dE             d eps       ncg     rms          rms(c)
RMM:   1    -0.290800865971E+03   -0.14979E-03   -0.41027E-04   710   0.343E-02    0.384E-03
RMM:   2    -0.290800863037E+03    0.29340E-05   -0.39407E-06   490   0.384E-03    0.291E-03
RMM:   3    -0.290800863063E+03   -0.26474E-07   -0.34297E-07   388   0.136E-03    0.201E-03
RMM:   4    -0.290800863114E+03   -0.50546E-07   -0.16735E-07   352   0.112E-03    0.880E-04
RMM:   5    -0.290800863121E+03   -0.68358E-08   -0.46612E-08   284   0.703E-04    0.349E-04
RMM:   6    -0.290800863117E+03    0.38381E-08   -0.11986E-08   170   0.461E-04
 224 F= -.29076889E+03 E0= -.29076889E+03  d E =-.160564E-03  mag=     0.0000
       N       E                     dE             d eps       ncg     rms          rms(c)
RMM:   1    -0.290801324671E+03   -0.46155E-03   -0.37283E-03   760   0.103E-01    0.113E-02
RMM:   2    -0.290801298523E+03    0.26148E-04   -0.36926E-05   670   0.111E-02    0.866E-03
RMM:   3    -0.290801298916E+03   -0.39308E-06   -0.30276E-06   520   0.310E-03    0.479E-03
RMM:   4    -0.290801299404E+03   -0.48806E-06   -0.79593E-07   432   0.212E-03    0.228E-03
RMM:   5    -0.290801299431E+03   -0.26557E-07   -0.24600E-07   394   0.152E-03    0.846E-04
RMM:   6    -0.290801299421E+03    0.10046E-07   -0.72008E-08   316   0.766E-04
 225 F= -.29076935E+03 E0= -.29076935E+03  d E =-.620656E-03  mag=    -0.0000
       N       E                     dE             d eps       ncg     rms          rms(c)
RMM:   1    -0.290802252789E+03   -0.95336E-03   -0.14921E-02   764   0.207E-01    0.226E-02
RMM:   2    -0.290802149058E+03    0.10373E-03   -0.14762E-04   752   0.221E-02    0.173E-02
RMM:   3    -0.290802150129E+03   -0.10712E-05   -0.12769E-05   650   0.581E-03    0.953E-03
RMM:   4    -0.290802151603E+03   -0.14740E-05   -0.27437E-06   540   0.334E-03    0.420E-03
RMM:   5    -0.290802151725E+03   -0.12221E-06   -0.55764E-07   456   0.198E-03    0.180E-03
RMM:   6    -0.290802151721E+03    0.41400E-08   -0.16331E-07   408   0.120E-03
 226 F= -.29077025E+03 E0= -.29077025E+03  d E =-.151995E-02  mag=    -0.0000
       N       E                     dE             d eps       ncg     rms          rms(c)
RMM:   1    -0.290802409964E+03   -0.25824E-03   -0.13424E-03   756   0.620E-02    0.680E-03
RMM:   2    -0.290802400517E+03    0.94477E-05   -0.13331E-05   618   0.673E-03    0.522E-03
RMM:   3    -0.290802400724E+03   -0.20784E-06   -0.10041E-06   452   0.205E-03    0.283E-03
RMM:   4    -0.290802400954E+03   -0.22910E-06   -0.35178E-07   426   0.152E-03    0.131E-03
RMM:   5    -0.290802400948E+03    0.55916E-08   -0.13136E-07   347   0.107E-03    0.526E-04
RMM:   6    -0.290802400941E+03    0.65447E-08   -0.46411E-08   242   0.613E-04
 227 F= -.29077051E+03 E0= -.29077051E+03  d E =-.177798E-02  mag=     0.0000
       N       E                     dE             d eps       ncg     rms          rms(c)
RMM:   1    -0.290802622094E+03   -0.22115E-03   -0.31513E-03   762   0.955E-02    0.128E-02
RMM:   2    -0.290802607337E+03    0.14757E-04   -0.38613E-05   672   0.121E-02    0.993E-03
RMM:   3    -0.290802606546E+03    0.79086E-06   -0.52328E-06   558   0.385E-03    0.511E-03
RMM:   4    -0.290802606537E+03    0.94642E-08   -0.12371E-06   458   0.230E-03    0.284E-03
RMM:   5    -0.290802606528E+03    0.85001E-08   -0.33283E-07   410   0.161E-03    0.132E-03
RMM:   6    -0.290802606663E+03   -0.13487E-06   -0.11338E-07   332   0.904E-04
 228 F= -.29077067E+03 E0= -.29077067E+03  d E =-.164592E-03  mag=     0.0000
       N       E                     dE             d eps       ncg     rms          rms(c)
RMM:   1    -0.290802931572E+03   -0.32504E-03   -0.11162E-02   766   0.180E-01    0.239E-02
RMM:   2    -0.290802880299E+03    0.51274E-04   -0.13744E-04   738   0.228E-02    0.186E-02
RMM:   3    -0.290802877773E+03    0.25253E-05   -0.18790E-05   658   0.688E-03    0.980E-03
RMM:   4    -0.290802877606E+03    0.16725E-06   -0.43504E-06   570   0.370E-03    0.540E-03
RMM:   5    -0.290802877518E+03    0.87906E-07   -0.98771E-07   472   0.221E-03    0.253E-03
RMM:   6    -0.290802877817E+03   -0.29841E-06   -0.26808E-07   412   0.139E-03
 229 F= -.29077087E+03 E0= -.29077087E+03  d E =-.365564E-03  mag=    -0.0000
       N       E                     dE             d eps       ncg     rms          rms(c)
RMM:   1    -0.290802968400E+03   -0.90882E-04   -0.11063E-03   756   0.569E-02    0.691E-03
RMM:   2    -0.290802961282E+03    0.71181E-05   -0.12188E-05   614   0.650E-03    0.512E-03
RMM:   3    -0.290802961361E+03   -0.79266E-07   -0.10268E-06   436   0.217E-03    0.280E-03
RMM:   4    -0.290802961571E+03   -0.20929E-06   -0.34095E-07   416   0.142E-03    0.890E-04
RMM:   5    -0.290802961580E+03   -0.92441E-08   -0.10124E-07   350   0.920E-04    0.558E-04
RMM:   6    -0.290802961573E+03    0.67375E-08   -0.32019E-08   242   0.580E-04
 230 F= -.29077098E+03 E0= -.29077098E+03  d E =-.104514E-03  mag=    -0.0000
       N       E                     dE             d eps       ncg     rms          rms(c)
RMM:   1    -0.290803252361E+03   -0.29078E-03   -0.99688E-03   766   0.171E-01    0.197E-02
RMM:   2    -0.290803189245E+03    0.63116E-04   -0.11105E-04   750   0.191E-02    0.145E-02
RMM:   3    -0.290803189630E+03   -0.38555E-06   -0.10088E-05   622   0.535E-03    0.846E-03
RMM:   4    -0.290803190827E+03   -0.11967E-05   -0.18579E-06   512   0.283E-03    0.272E-03
RMM:   5    -0.290803191139E+03   -0.31208E-06   -0.33756E-07   428   0.158E-03    0.130E-03
RMM:   6    -0.290803191101E+03    0.37837E-07   -0.18228E-07   372   0.102E-03
 231 F= -.29077124E+03 E0= -.29077124E+03  d E =-.366809E-03  mag=    -0.0000
       N       E                     dE             d eps       ncg     rms          rms(c)
RMM:   1    -0.290803792282E+03   -0.60114E-03   -0.39869E-02   766   0.341E-01    0.393E-02
RMM:   2    -0.290803540407E+03    0.25188E-03   -0.44306E-04   768   0.381E-02    0.290E-02
RMM:   3    -0.290803542230E+03   -0.18234E-05   -0.40976E-05   778   0.105E-02    0.172E-02
RMM:   4    -0.290803546022E+03   -0.37922E-05   -0.74377E-06   598   0.499E-03    0.624E-03
RMM:   5    -0.290803547204E+03   -0.11822E-05   -0.14514E-06   508   0.255E-03    0.302E-03
RMM:   6    -0.290803547166E+03    0.38004E-07   -0.35993E-07   462   0.163E-03
 232 F= -.29077167E+03 E0= -.29077167E+03  d E =-.795142E-03  mag=     0.0000
       N       E                     dE             d eps       ncg     rms          rms(c)
RMM:   1    -0.290803435300E+03    0.11190E-03   -0.17116E-02   766   0.224E-01    0.260E-02
RMM:   2    -0.290803327014E+03    0.10829E-03   -0.18989E-04   756   0.250E-02    0.189E-02
RMM:   3    -0.290803327141E+03   -0.12679E-06   -0.18602E-05   690   0.711E-03    0.108E-02
RMM:   4    -0.290803328615E+03   -0.14745E-05   -0.34758E-06   548   0.356E-03    0.357E-03
RMM:   5    -0.290803329087E+03   -0.47228E-06   -0.60349E-07   406   0.195E-03    0.209E-03
RMM:   6    -0.290803329054E+03    0.33122E-07   -0.20358E-07   376   0.137E-03
 233 F= -.29077139E+03 E0= -.29077139E+03  d E =-.517764E-03  mag=    -0.0000
       N       E                     dE             d eps       ncg     rms          rms(c)
RMM:   1    -0.290803246566E+03    0.82521E-04   -0.20689E-03   756   0.777E-02    0.106E-02
RMM:   2    -0.290803236271E+03    0.10296E-04   -0.25768E-05   642   0.841E-03    0.732E-03
RMM:   3    -0.290803236114E+03    0.15688E-06   -0.29901E-06   484   0.295E-03    0.452E-03
RMM:   4    -0.290803236388E+03   -0.27392E-06   -0.76870E-07   408   0.190E-03    0.274E-03
RMM:   5    -0.290803236551E+03   -0.16313E-06   -0.38862E-07   368   0.162E-03    0.100E-03
RMM:   6    -0.290803236615E+03   -0.64205E-07   -0.96253E-08   298   0.881E-04
 234 F= -.29077132E+03 E0= -.29077132E+03  d E =0.654182E-04  mag=     0.0000
       N       E                     dE             d eps       ncg     rms          rms(c)
RMM:   1    -0.290803157050E+03    0.79501E-04   -0.13089E-03   756   0.617E-02    0.789E-03
RMM:   2    -0.290803150606E+03    0.64441E-05   -0.16252E-05   614   0.673E-03    0.574E-03
RMM:   3    -0.290803150590E+03    0.16025E-07   -0.14717E-06   456   0.230E-03    0.360E-03
RMM:   4    -0.290803150981E+03   -0.39121E-06   -0.57335E-07   404   0.167E-03    0.186E-03
RMM:   5    -0.290803151045E+03   -0.63923E-07   -0.21186E-07   348   0.133E-03    0.717E-04
RMM:   6    -0.290803151069E+03   -0.23652E-07   -0.54241E-08   258   0.683E-04
 235 F= -.29077125E+03 E0= -.29077125E+03  d E =0.136721E-03  mag=    -0.0000
       N       E                     dE             d eps       ncg     rms          rms(c)
RMM:   1    -0.290802904292E+03    0.24675E-03   -0.23858E-03   762   0.829E-02    0.105E-02
RMM:   2    -0.290802886068E+03    0.18224E-04   -0.27970E-05   672   0.103E-02    0.786E-03
RMM:   3    -0.290802886593E+03   -0.52475E-06   -0.21718E-06   494   0.266E-03    0.462E-03
RMM:   4    -0.290802887446E+03   -0.85324E-06   -0.77847E-07   424   0.201E-03    0.193E-03
RMM:   5    -0.290802887465E+03   -0.19290E-07   -0.24585E-07   384   0.148E-03    0.901E-04
RMM:   6    -0.290802887485E+03   -0.19994E-07   -0.76468E-08   288   0.735E-04
 236 F= -.29077096E+03 E0= -.29077096E+03  d E =0.288994E-03  mag=    -0.0000
       N       E                     dE             d eps       ncg     rms          rms(c)
RMM:   1    -0.290802210491E+03    0.67697E-03   -0.21462E-02   766   0.249E-01    0.314E-02
RMM:   2    -0.290802046971E+03    0.16352E-03   -0.25132E-04   758   0.306E-02    0.234E-02
RMM:   3    -0.290802051414E+03   -0.44430E-05   -0.22845E-05   714   0.738E-03    0.141E-02
RMM:   4    -0.290802058224E+03   -0.68098E-05   -0.66651E-06   606   0.475E-03    0.614E-03
RMM:   5    -0.290802058165E+03    0.59184E-07   -0.10082E-06   480   0.232E-03    0.265E-03
RMM:   6    -0.290802058219E+03   -0.53857E-07   -0.28637E-07   440   0.133E-03
 237 F= -.29077007E+03 E0= -.29077007E+03  d E =0.118577E-02  mag=     0.0000
       N       E                     dE             d eps       ncg     rms          rms(c)
RMM:   1    -0.290801792965E+03    0.26520E-03   -0.22490E-03   762   0.805E-02    0.102E-02
RMM:   2    -0.290801775745E+03    0.17220E-04   -0.26429E-05   670   0.101E-02    0.770E-03
RMM:   3    -0.290801776365E+03   -0.62020E-06   -0.21228E-06   502   0.262E-03    0.451E-03
RMM:   4    -0.290801777256E+03   -0.89035E-06   -0.67961E-07   442   0.194E-03    0.183E-03
RMM:   5    -0.290801777283E+03   -0.27314E-07   -0.24366E-07   413   0.146E-03    0.942E-04
RMM:   6    -0.290801777305E+03   -0.22012E-07   -0.84578E-08   312   0.747E-04
 238 F= -.29076977E+03 E0= -.29076977E+03  d E =0.147920E-02  mag=    -0.0000
       N       E                     dE             d eps       ncg     rms          rms(c)
RMM:   1    -0.290801180092E+03    0.59719E-03   -0.74747E-03   766   0.147E-01    0.179E-02
RMM:   2    -0.290801124955E+03    0.55138E-04   -0.85550E-05   696   0.149E-02    0.134E-02
RMM:   3    -0.290801125616E+03   -0.66138E-06   -0.73754E-06   596   0.444E-03    0.781E-03
RMM:   4    -0.290801127360E+03   -0.17445E-05   -0.18741E-06   490   0.266E-03    0.264E-03
RMM:   5    -0.290801127690E+03   -0.32964E-06   -0.40810E-07   416   0.171E-03    0.167E-03
RMM:   6    -0.290801127685E+03    0.49004E-08   -0.13762E-07   364   0.113E-03
 239 F= -.29076918E+03 E0= -.29076918E+03  d E =0.597170E-03  mag=     0.0000
       N       E                     dE             d eps       ncg     rms          rms(c)
RMM:   1    -0.290800381601E+03    0.74609E-03   -0.10911E-02   766   0.177E-01    0.216E-02
RMM:   2    -0.290800301149E+03    0.80452E-04   -0.12524E-04   726   0.180E-02    0.161E-02
RMM:   3    -0.290800302255E+03   -0.11062E-05   -0.10706E-05   626   0.527E-03    0.940E-03
RMM:   4    -0.290800304852E+03   -0.25962E-05   -0.26053E-06   526   0.300E-03    0.290E-03
RMM:   5    -0.290800305319E+03   -0.46678E-06   -0.42610E-07   427   0.164E-03    0.176E-03
RMM:   6    -0.290800305308E+03    0.10848E-07   -0.16653E-07   382   0.113E-03
 240 F= -.29076841E+03 E0= -.29076841E+03  d E =0.136556E-02  mag=    -0.0000
       N       E                     dE             d eps       ncg     rms          rms(c)
RMM:   1    -0.290799942597E+03    0.36272E-03   -0.19484E-03   756   0.735E-02    0.907E-03
RMM:   2    -0.290799925416E+03    0.17181E-04   -0.20882E-05   634   0.766E-03    0.687E-03
RMM:   3    -0.290799925951E+03   -0.53514E-06   -0.13742E-06   458   0.222E-03    0.398E-03
RMM:   4    -0.290799926569E+03   -0.61821E-06   -0.51623E-07   418   0.177E-03    0.173E-03
RMM:   5    -0.290799926580E+03   -0.10143E-07   -0.18709E-07   360   0.129E-03    0.750E-04
RMM:   6    -0.290799926589E+03   -0.89967E-08   -0.71029E-08   280   0.707E-04
 241 F= -.29076803E+03 E0= -.29076803E+03  d E =0.378540E-03  mag=     0.0000
       N       E                     dE             d eps       ncg     rms          rms(c)
RMM:   1    -0.290798925350E+03    0.10012E-02   -0.17504E-02   766   0.220E-01    0.266E-02
RMM:   2    -0.290798771137E+03    0.15421E-03   -0.18836E-04   752   0.227E-02    0.201E-02
RMM:   3    -0.290798774835E+03   -0.36982E-05   -0.13805E-05   654   0.566E-03    0.122E-02
RMM:   4    -0.290798780314E+03   -0.54789E-05   -0.43739E-06   564   0.390E-03    0.523E-03
RMM:   5    -0.290798780356E+03   -0.42623E-07   -0.74803E-07   456   0.213E-03    0.212E-03
RMM:   6    -0.290798780426E+03   -0.69798E-07   -0.24480E-07   401   0.122E-03
 242 F= -.29076689E+03 E0= -.29076689E+03  d E =0.151470E-02  mag=     0.0000
       N       E                     dE             d eps       ncg     rms          rms(c)
RMM:   1    -0.290797024148E+03    0.17562E-02   -0.70022E-02   766   0.441E-01    0.534E-02
RMM:   2    -0.290796413973E+03    0.61017E-03   -0.75586E-04   766   0.455E-02    0.402E-02
RMM:   3    -0.290796422865E+03   -0.88922E-05   -0.56360E-05   818   0.112E-02    0.249E-02
RMM:   4    -0.290796442289E+03   -0.19423E-04   -0.18155E-05   658   0.708E-03    0.106E-02
RMM:   5    -0.290796442502E+03   -0.21329E-06   -0.29829E-06   540   0.313E-03    0.451E-03
RMM:   6    -0.290796442705E+03   -0.20336E-06   -0.87450E-07   462   0.179E-03
 243 F= -.29076457E+03 E0= -.29076457E+03  d E =0.383375E-02  mag=    -0.0000
       N       E                     dE             d eps       ncg     rms          rms(c)
RMM:   1    -0.290797195806E+03   -0.75330E-03   -0.62008E-03   766   0.131E-01    0.157E-02
RMM:   2    -0.290797141333E+03    0.54473E-04   -0.66072E-05   688   0.135E-02    0.118E-02
RMM:   3    -0.290797142283E+03   -0.95012E-06   -0.45934E-06   510   0.350E-03    0.683E-03
RMM:   4    -0.290797143619E+03   -0.13361E-05   -0.15187E-06   444   0.262E-03    0.304E-03
RMM:   5    -0.290797143658E+03   -0.39361E-07   -0.38698E-07   394   0.184E-03    0.117E-03
RMM:   6    -0.290797143670E+03   -0.11663E-07   -0.93118E-08   342   0.851E-04
 244 F= -.29076527E+03 E0= -.29076527E+03  d E =0.313595E-02  mag=    -0.0000
       N       E                     dE             d eps       ncg     rms          rms(c)
RMM:   1    -0.290796401835E+03    0.74182E-03   -0.79037E-03   764   0.148E-01    0.178E-02
RMM:   2    -0.290796331570E+03    0.70265E-04   -0.82553E-05   690   0.151E-02    0.135E-02
RMM:   3    -0.290796333309E+03   -0.17398E-05   -0.58253E-06   550   0.378E-03    0.816E-03
RMM:   4    -0.290796335686E+03   -0.23764E-05   -0.21047E-06   500   0.292E-03    0.370E-03
RMM:   5    -0.290796335779E+03   -0.93687E-07   -0.46327E-07   414   0.195E-03    0.140E-03
RMM:   6    -0.290796335818E+03   -0.38399E-07   -0.15644E-07   362   0.993E-04
 245 F= -.29076445E+03 E0= -.29076445E+03  d E =0.825437E-03  mag=    -0.0000
