TS_BlakPhos                             
           1
    13.254400    0.000000    0.000000
     0.000000   13.128900    0.000000
     0.000000    0.000000   20.000000
   P    Ru   C    O 
  48   1   1   3
Direct configuration=     1
   0.06872282  0.20789143  0.04449205
   0.19450691  0.31981507  0.04325042
   0.19157546  0.03853962  0.14854867
   0.06713077  0.15234995  0.15037762
   0.31169915  0.19888604  0.03964580
   0.44173756  0.30406226  0.02664337
   0.44101586  0.03845329  0.14835556
   0.31654491  0.15159609  0.14752665
   0.57059527  0.19703177  0.03876830
   0.69013536  0.31630144  0.04011872
   0.69069619  0.03872091  0.14862287
   0.56555210  0.15170382  0.14705550
   0.81632234  0.20512033  0.04319672
   0.94169247  0.31791051  0.04068877
   0.94143488  0.03941446  0.14989845
   0.81574682  0.15216161  0.14955063
   0.06629925  0.53820871  0.03107646
   0.19074413  0.65296064  0.02806555
   0.19529934  0.38634938  0.14819946
   0.06670205  0.49414364  0.13942177
   0.31771891  0.54184735  0.02477604
   0.44114828  0.65398627  0.02362970
   0.44115643  0.36375718  0.13122093
   0.33052828  0.48922530  0.13305397
   0.56456234  0.54079628  0.02650970
   0.69112107  0.65218409  0.03058545
   0.68868135  0.38038568  0.14506215
   0.55638274  0.48532543  0.13353194
   0.81541630  0.53760360  0.03231339
   0.94045534  0.65118049  0.03223511
   0.94186624  0.38015500  0.14456580
   0.81527230  0.49152413  0.14016375
   0.06547675  0.87239202  0.04086284
   0.18989380  0.98529370  0.04197599
   0.19191617  0.69517881  0.13656221
   0.06691575  0.80804048  0.14475859
   0.31562155  0.87371207  0.03970449
   0.44096360  0.98570326  0.04195548
   0.43776223  0.69964305  0.13460866
   0.31342022  0.81133869  0.14445940
   0.56524678  0.87267393  0.04118843
   0.69062690  0.98465128  0.04236454
   0.69027591  0.69696296  0.13862161
   0.56528611  0.80899090  0.14617044
   0.81659251  0.87320358  0.04032522
   0.94165523  0.98606504  0.04348628
   0.94024004  0.69772245  0.13998159
   0.81505663  0.81014738  0.14427586
   0.43611355  0.56863023  0.20714330
   0.33268510  0.61443938  0.27524629
   0.42330363  0.57598072  0.31841656
   0.48374556  0.51547274  0.29119555
   0.25683630  0.65401057  0.28901289
Direct configuration=     2
   0.06857265  0.20801750  0.04442317
   0.19438853  0.31986906  0.04317026
   0.19148535  0.03861398  0.14846678
   0.06702789  0.15238918  0.15032186
   0.31163553  0.19896887  0.03955857
   0.44169698  0.30407749  0.02649256
   0.44092897  0.03861482  0.14830204
   0.31646005  0.15164982  0.14747376
   0.57056220  0.19713334  0.03866232
   0.69006971  0.31649447  0.04021336
   0.69064015  0.03880566  0.14854863
   0.56547308  0.15177152  0.14697201
   0.81622786  0.20526719  0.04315424
   0.94159737  0.31806350  0.04070711
   0.94134109  0.03951970  0.14983647
   0.81564547  0.15228203  0.14950830
   0.06622212  0.53827375  0.03125818
   0.19070457  0.65298206  0.02831219
   0.19521290  0.38618207  0.14828095
   0.06664337  0.49405801  0.13954354
   0.31771902  0.54194620  0.02494210
   0.44106571  0.65405612  0.02379856
   0.44096162  0.36381870  0.13126609
   0.33072551  0.48922854  0.13344947
   0.56442141  0.54094675  0.02651423
   0.69104388  0.65227976  0.03073197
   0.68888067  0.38021944  0.14513879
   0.55599214  0.48565868  0.13354103
   0.81533240  0.53769347  0.03244265
   0.94038840  0.65124016  0.03237137
   0.94175875  0.38018387  0.14469164
   0.81518586  0.49151537  0.14025815
   0.06538910  0.87251694  0.04077643
   0.18979057  0.98541224  0.04186813
   0.19180134  0.69557679  0.13667763
   0.06680134  0.80835091  0.14475809
   0.31556918  0.87383733  0.03963901
   0.44091370  0.98574814  0.04185895
   0.43746602  0.69995356  0.13462140
   0.31330389  0.81183713  0.14450240
   0.56513067  0.87275946  0.04109177
   0.69056834  0.98474232  0.04230695
   0.69017682  0.69708876  0.13876783
   0.56524493  0.80922039  0.14622484
   0.81649643  0.87321010  0.04028791
   0.94150477  0.98613320  0.04341039
   0.94018375  0.69793956  0.14008997
   0.81495870  0.81030597  0.14431617
   0.43642204  0.56859557  0.20320647
   0.33731360  0.61063419  0.27244491
   0.42030178  0.58539431  0.32492399
   0.49121274  0.50574638  0.28706920
   0.25547204  0.65537790  0.29145514
Direct configuration=     3
   0.06860011  0.20799444  0.04443577
   0.19441019  0.31985918  0.04318492
   0.19150183  0.03860038  0.14848176
   0.06704671  0.15238200  0.15033206
   0.31164717  0.19895372  0.03957452
   0.44170441  0.30407471  0.02652015
   0.44094486  0.03858527  0.14831183
   0.31647557  0.15163999  0.14748343
   0.57056825  0.19711476  0.03868170
   0.69008172  0.31645917  0.04019605
   0.69065040  0.03879016  0.14856221
   0.56548753  0.15175914  0.14698728
   0.81624514  0.20524033  0.04316201
   0.94161476  0.31803552  0.04070376
   0.94135825  0.03950045  0.14984781
   0.81566401  0.15226000  0.14951604
   0.06623623  0.53826186  0.03122494
   0.19071180  0.65297814  0.02826708
   0.19522871  0.38621267  0.14826605
   0.06665411  0.49407367  0.13952126
   0.31771900  0.54192812  0.02491173
   0.44108081  0.65404334  0.02376767
   0.44099725  0.36380745  0.13125783
   0.33068944  0.48922794  0.13337713
   0.56444719  0.54091923  0.02651340
   0.69105800  0.65226226  0.03070517
   0.68884421  0.38024985  0.14512477
   0.55606359  0.48559772  0.13353937
   0.81534775  0.53767703  0.03241901
   0.94040065  0.65122924  0.03234645
   0.94177841  0.38017859  0.14466862
   0.81520167  0.49151697  0.14024089
   0.06540514  0.87249409  0.04079223
   0.18980945  0.98539055  0.04188785
   0.19182234  0.69550399  0.13665652
   0.06682227  0.80829413  0.14475818
   0.31557876  0.87381442  0.03965099
   0.44092283  0.98573993  0.04187661
   0.43752020  0.69989677  0.13461907
   0.31332517  0.81174596  0.14449453
   0.56515191  0.87274382  0.04110945
   0.69057905  0.98472567  0.04231748
   0.69019494  0.69706575  0.13874108
   0.56525246  0.80917841  0.14621489
   0.81651400  0.87320891  0.04029474
   0.94153229  0.98612073  0.04342427
   0.94019405  0.69789985  0.14007014
   0.81497662  0.81027696  0.14430880
   0.43636561  0.56860191  0.20392656
   0.33646700  0.61133020  0.27295731
   0.42085085  0.58367246  0.32373371
   0.48984692  0.50752543  0.28782395
   0.25572158  0.65512780  0.29100843
Direct configuration=     4
   0.06861851  0.20797900  0.04444420
   0.19442468  0.31985257  0.04319474
   0.19151287  0.03859127  0.14849179
   0.06705931  0.15237720  0.15033889
   0.31165496  0.19894358  0.03958520
   0.44170938  0.30407284  0.02653862
   0.44095550  0.03856549  0.14831838
   0.31648596  0.15163341  0.14748991
   0.57057230  0.19710232  0.03869468
   0.69008976  0.31643553  0.04018446
   0.69065727  0.03877978  0.14857130
   0.56549721  0.15175085  0.14699751
   0.81625672  0.20522234  0.04316721
   0.94162641  0.31801678  0.04070151
   0.94136973  0.03948756  0.14985540
   0.81567642  0.15224525  0.14952123
   0.06624567  0.53825389  0.03120269
   0.19071665  0.65297552  0.02823687
   0.19523930  0.38623316  0.14825607
   0.06666129  0.49408416  0.13950635
   0.31771899  0.54191601  0.02489139
   0.44109093  0.65403479  0.02374699
   0.44102111  0.36379991  0.13125230
   0.33066528  0.48922755  0.13332869
   0.56446445  0.54090080  0.02651284
   0.69106746  0.65225054  0.03068723
   0.68881980  0.38027021  0.14511538
   0.55611142  0.48555691  0.13353826
   0.81535802  0.53766602  0.03240318
   0.94040884  0.65122194  0.03232976
   0.94179158  0.38017505  0.14465321
   0.81521226  0.49151805  0.14022933
   0.06541587  0.87247879  0.04080282
   0.18982209  0.98537604  0.04190106
   0.19183641  0.69545525  0.13664238
   0.06683628  0.80825611  0.14475824
   0.31558517  0.87379908  0.03965901
   0.44092894  0.98573443  0.04188843
   0.43755648  0.69985874  0.13461751
   0.31333942  0.81168491  0.14448927
   0.56516613  0.87273334  0.04112128
   0.69058622  0.98471452  0.04232453
   0.69020708  0.69705034  0.13872317
   0.56525751  0.80915031  0.14620823
   0.81652577  0.87320811  0.04029931
   0.94155071  0.98611238  0.04343357
   0.94020094  0.69787326  0.14005687
   0.81498861  0.81025754  0.14430386
   0.43632783  0.56860615  0.20440871
   0.33590014  0.61179622  0.27330040
   0.42121849  0.58251957  0.32293674
   0.48893240  0.50871663  0.28832931
   0.25588866  0.65496034  0.29070932
Direct configuration=     5
   0.06866222  0.20794230  0.04446426
   0.19445914  0.31983686  0.04321807
   0.19153910  0.03856963  0.14851562
   0.06708926  0.15236578  0.15035512
   0.31167348  0.19891947  0.03961060
   0.44172119  0.30406841  0.02658251
   0.44098079  0.03851847  0.14833396
   0.31651066  0.15161777  0.14750531
   0.57058192  0.19707276  0.03872553
   0.69010887  0.31637934  0.04015691
   0.69067358  0.03875511  0.14859291
   0.56552021  0.15173114  0.14702181
   0.81628422  0.20517959  0.04317958
   0.94165409  0.31797225  0.04069617
   0.94139703  0.03945693  0.14987344
   0.81570592  0.15221020  0.14953355
   0.06626813  0.53823496  0.03114979
   0.19072816  0.65296928  0.02816508
   0.19526446  0.38628186  0.14823234
   0.06667837  0.49410908  0.13947091
   0.31771896  0.54188724  0.02484305
   0.44111496  0.65401446  0.02369784
   0.44107781  0.36378201  0.13123915
   0.33060787  0.48922661  0.13321357
   0.56450547  0.54085700  0.02651153
   0.69108992  0.65222270  0.03064458
   0.68876178  0.38031859  0.14509308
   0.55622512  0.48545991  0.13353561
   0.81538245  0.53763986  0.03236555
   0.94042833  0.65120457  0.03229010
   0.94182286  0.38016665  0.14461658
   0.81523742  0.49152059  0.14020185
   0.06544138  0.87244243  0.04082797
   0.18985214  0.98534153  0.04193246
   0.19186983  0.69533941  0.13660879
   0.06686958  0.80816575  0.14475839
   0.31560042  0.87376262  0.03967807
   0.44094346  0.98572137  0.04191653
   0.43764270  0.69976835  0.13461380
   0.31337328  0.81153983  0.14447675
   0.56519993  0.87270844  0.04114942
   0.69060327  0.98468802  0.04234130
   0.69023592  0.69701372  0.13868061
   0.56526949  0.80908351  0.14619239
   0.81655374  0.87320621  0.04031017
   0.94159451  0.98609255  0.04345565
   0.94021733  0.69781006  0.14002532
   0.81501711  0.81021138  0.14429212
   0.43623804  0.56861624  0.20555464
   0.33455288  0.61290383  0.27411583
   0.42209227  0.57977947  0.32104256
   0.48675886  0.51154777  0.28953041
   0.25628577  0.65456234  0.28999843
Direct configuration=     6
   0.06864620  0.20795575  0.04445691
   0.19444652  0.31984261  0.04320952
   0.19152949  0.03857755  0.14850689
   0.06707828  0.15236996  0.15034917
   0.31166669  0.19892830  0.03960129
   0.44171686  0.30407003  0.02656643
   0.44097153  0.03853570  0.14832825
   0.31650161  0.15162350  0.14749967
   0.57057840  0.19708359  0.03871423
   0.69010187  0.31639992  0.04016700
   0.69066760  0.03876415  0.14858499
   0.56551178  0.15173836  0.14701291
   0.81627414  0.20519525  0.04317505
   0.94164395  0.31798856  0.04069813
   0.94138703  0.03946815  0.14986683
   0.81569511  0.15222304  0.14952904
   0.06625990  0.53824189  0.03116917
   0.19072395  0.65297157  0.02819138
   0.19525524  0.38626402  0.14824103
   0.06667212  0.49409995  0.13948389
   0.31771897  0.54189778  0.02486076
   0.44110616  0.65402191  0.02371585
   0.44105704  0.36378857  0.13124397
   0.33062890  0.48922695  0.13325574
   0.56449044  0.54087305  0.02651201
   0.69108169  0.65223290  0.03066020
   0.68878304  0.38030087  0.14510125
   0.55618347  0.48549544  0.13353658
   0.81537350  0.53764945  0.03237933
   0.94042119  0.65121093  0.03230462
   0.94181140  0.38016972  0.14463000
   0.81522820  0.49151966  0.14021191
   0.06543204  0.87245575  0.04081875
   0.18984113  0.98535417  0.04192096
   0.19185759  0.69538185  0.13662110
   0.06685738  0.80819885  0.14475833
   0.31559484  0.87377598  0.03967109
   0.44093814  0.98572615  0.04190624
   0.43761111  0.69980146  0.13461516
   0.31336087  0.81159297  0.14448134
   0.56518755  0.87271756  0.04113911
   0.69059702  0.98469772  0.04233516
   0.69022536  0.69702713  0.13869620
   0.56526510  0.80910798  0.14619819
   0.81654349  0.87320691  0.04030619
   0.94157847  0.98609981  0.04344756
   0.94021133  0.69783321  0.14003688
   0.81500667  0.81022829  0.14429642
   0.43627093  0.56861255  0.20513486
   0.33504640  0.61249810  0.27381712
   0.42177219  0.58078322  0.32173643
   0.48755507  0.51051068  0.28909042
   0.25614030  0.65470814  0.29025885
Direct configuration=     7
   0.06864946  0.20795301  0.04445840
   0.19444908  0.31984144  0.04321126
   0.19153144  0.03857594  0.14850867
   0.06708051  0.15236911  0.15035038
   0.31166807  0.19892650  0.03960318
   0.44171774  0.30406970  0.02656970
   0.44097341  0.03853220  0.14832941
   0.31650345  0.15162234  0.14750081
   0.57057912  0.19708138  0.03871653
   0.69010329  0.31639574  0.04016495
   0.69066882  0.03876231  0.14858660
   0.56551350  0.15173689  0.14701472
   0.81627619  0.20519207  0.04317597
   0.94164601  0.31798524  0.04069773
   0.94138906  0.03946587  0.14986817
   0.81569731  0.15222043  0.14952996
   0.06626157  0.53824048  0.03116523
   0.19072480  0.65297110  0.02818603
   0.19525711  0.38626765  0.14823927
   0.06667339  0.49410181  0.13948125
   0.31771896  0.54189564  0.02485716
   0.44110795  0.65402039  0.02371219
   0.44106126  0.36378723  0.13124299
   0.33062463  0.48922688  0.13324717
   0.56449350  0.54086979  0.02651191
   0.69108337  0.65223082  0.03065703
   0.68877872  0.38030447  0.14509959
   0.55619194  0.48548822  0.13353638
   0.81537532  0.53764750  0.03237653
   0.94042264  0.65120964  0.03230167
   0.94181373  0.38016910  0.14462727
   0.81523007  0.49151985  0.14020987
   0.06543394  0.87245304  0.04082063
   0.18984337  0.98535160  0.04192330
   0.19186008  0.69537322  0.13661859
   0.06685986  0.80819212  0.14475834
   0.31559597  0.87377326  0.03967250
   0.44093922  0.98572518  0.04190833
   0.43761753  0.69979473  0.13461488
   0.31336339  0.81158217  0.14448041
   0.56519006  0.87271571  0.04114121
   0.69059829  0.98469575  0.04233641
   0.69022751  0.69702441  0.13869303
   0.56526599  0.80910301  0.14619702
   0.81654557  0.87320677  0.04030700
   0.94158173  0.98609834  0.04344921
   0.94021255  0.69782851  0.14003453
   0.81500879  0.81022485  0.14429555
   0.43626425  0.56861330  0.20522018
   0.33494609  0.61258056  0.27387784
   0.42183725  0.58057920  0.32159540
   0.48739323  0.51072147  0.28917985
   0.25616987  0.65467850  0.29020592
Direct configuration=     8
   0.06858896  0.20801026  0.04444777
   0.19443506  0.31988795  0.04317010
   0.19149346  0.03859593  0.14846951
   0.06703452  0.15238298  0.15031949
   0.31164824  0.19895390  0.03957878
   0.44170152  0.30407175  0.02651545
   0.44093530  0.03859079  0.14829681
   0.31646061  0.15165197  0.14746650
   0.57056506  0.19710608  0.03868636
   0.69008870  0.31648145  0.04021687
   0.69065151  0.03878686  0.14855162
   0.56548291  0.15176825  0.14696494
   0.81624163  0.20524268  0.04315474
   0.94160122  0.31805890  0.04070794
   0.94134932  0.03950459  0.14983778
   0.81565683  0.15228076  0.14950622
   0.06623029  0.53826858  0.03124659
   0.19071868  0.65297803  0.02829036
   0.19519402  0.38621436  0.14831676
   0.06665127  0.49406992  0.13952956
   0.31773590  0.54193407  0.02491703
   0.44107096  0.65406195  0.02374479
   0.44097420  0.36375707  0.13124750
   0.33072669  0.48934146  0.13326877
   0.56443168  0.54091822  0.02650708
   0.69104742  0.65227620  0.03072646
   0.68887520  0.38022992  0.14512476
   0.55614236  0.48563500  0.13339254
   0.81534257  0.53768836  0.03243298
   0.94039280  0.65123915  0.03236832
   0.94176153  0.38017473  0.14468356
   0.81519109  0.49150669  0.14024178
   0.06538704  0.87250953  0.04077958
   0.18979345  0.98542165  0.04188777
   0.19182039  0.69552804  0.13668150
   0.06681771  0.80833694  0.14475173
   0.31556786  0.87381973  0.03964427
   0.44091840  0.98575240  0.04188029
   0.43736132  0.70011628  0.13441397
   0.31327813  0.81184385  0.14450640
   0.56513808  0.87274753  0.04109541
   0.69055385  0.98474740  0.04232422
   0.69019402  0.69707752  0.13875031
   0.56525437  0.80919806  0.14622430
   0.81651223  0.87319894  0.04029263
   0.94152230  0.98613441  0.04341712
   0.94019118  0.69791749  0.14007408
   0.81497144  0.81029750  0.14430850
   0.43659772  0.56790552  0.20320072
   0.33496883  0.61222280  0.27399044
   0.42076761  0.58391592  0.32401132
   0.48828171  0.50836154  0.28794256
   0.25938666  0.65328436  0.29061103
Direct configuration=     9
   0.06860678  0.20799340  0.04445090
   0.19443919  0.31987425  0.04318222
   0.19150465  0.03859005  0.14848104
   0.06704807  0.15237890  0.15032859
   0.31165408  0.19894583  0.03958597
   0.44170630  0.30407114  0.02653143
   0.44094652  0.03857353  0.14830641
   0.31647323  0.15164324  0.14747661
   0.57056920  0.19709880  0.03869525
   0.69009300  0.31645621  0.04020158
   0.69065661  0.03877963  0.14856193
   0.56549192  0.15175901  0.14697960
   0.81625181  0.20522777  0.04316099
   0.94161441  0.31803720  0.04070493
   0.94136102  0.03949319  0.14984674
   0.81566875  0.15226299  0.14951321
   0.06623950  0.53826030  0.03122262
   0.19072048  0.65297599  0.02825963
   0.19521261  0.38623006  0.14829393
   0.06665779  0.49407932  0.13951533
   0.31773091  0.54192275  0.02489939
   0.44108185  0.65404971  0.02373519
   0.44099984  0.36376595  0.13124617
   0.33069663  0.48930771  0.13326240
   0.56444989  0.54090396  0.02650850
   0.69105801  0.65226283  0.03070601
   0.68884678  0.38025188  0.14511734
   0.55615697  0.48559177  0.13343491
   0.81535222  0.53767632  0.03241635
   0.94040159  0.65123046  0.03234869
   0.94177690  0.38017307  0.14466698
   0.81520257  0.49151057  0.14023238
   0.06540085  0.87249289  0.04079167
   0.18980816  0.98540102  0.04189823
   0.19183208  0.69548244  0.13666297
   0.06683013  0.80829429  0.14475368
   0.31557614  0.87380604  0.03965258
   0.44092453  0.98574439  0.04188855
   0.43743679  0.70002157  0.13447315
   0.31330324  0.81176677  0.14449874
   0.56515339  0.87273816  0.04110890
   0.69056694  0.98473219  0.04232781
   0.69020388  0.69706188  0.13873344
   0.56525780  0.80917006  0.14621626
   0.81652205  0.87320125  0.04029686
   0.94153981  0.98612379  0.04342657
   0.94019747  0.69789128  0.14006243
   0.81498245  0.81027610  0.14430469
   0.43649949  0.56811399  0.20379554
   0.33496213  0.61232817  0.27395727
   0.42108266  0.58293311  0.32329973
   0.48802002  0.50905664  0.28830700
   0.25843918  0.65369499  0.29049171
Direct configuration=    10
   0.06854376  0.20805705  0.04444100
   0.19443108  0.31993033  0.04314455
   0.19146130  0.03861501  0.14843447
   0.06699769  0.15239650  0.15029313
   0.31162641  0.19897087  0.03955997
   0.44168199  0.30407535  0.02648082
   0.44090615  0.03863088  0.14826622
   0.31642652  0.15167944  0.14743695
   0.57055525  0.19712605  0.03866526
   0.69007131  0.31655107  0.04025275
   0.69063489  0.03880651  0.14852333
   0.56545787  0.15179592  0.14692314
   0.81621422  0.20528854  0.04314108
   0.94156441  0.31812093  0.04071934
   0.94131481  0.03953421  0.14981146
   0.81562593  0.15232496  0.14948622
   0.06620589  0.53829272  0.03131171
   0.19071500  0.65298250  0.02837430
   0.19514711  0.38618902  0.14837768
   0.06663105  0.49404309  0.13957182
   0.31773606  0.54195631  0.02495553
   0.44103626  0.65410355  0.02374295
   0.44092148  0.36369299  0.13122882
   0.33071758  0.48936006  0.13316630
   0.56438954  0.54095970  0.02649041
   0.69101651  0.65231218  0.03078144
   0.68891957  0.38020114  0.14515413
   0.55615116  0.48568198  0.13322009
   0.81531772  0.53772291  0.03247697
   0.94036789  0.65126369  0.03242407
   0.94171917  0.38017738  0.14472409
   0.81516540  0.49150186  0.14026938
   0.06534628  0.87255444  0.04074986
   0.18975599  0.98547850  0.04186069
   0.19178391  0.69565710  0.13673214
   0.06677997  0.80845341  0.14474402
   0.31553950  0.87386138  0.03962292
   0.44089936  0.98578111  0.04186014
   0.43719427  0.70039947  0.13420739
   0.31320072  0.81204113  0.14452387
   0.56510491  0.87277096  0.04106808
   0.69052083  0.98478580  0.04231193
   0.69016349  0.69711879  0.13879704
   0.56524236  0.80928635  0.14623738
   0.81648386  0.87319571  0.04028356
   0.94147322  0.98616462  0.04339162
   0.94017357  0.69798955  0.14010700
   0.81494003  0.81035747  0.14431791
   0.43681449  0.56729789  0.20236684
   0.33642214  0.61144009  0.27405362
   0.42084310  0.58540970  0.32492241
   0.48809275  0.50760463  0.28733119
   0.26062707  0.65283221  0.29109484
Direct configuration=    11
   0.06849257  0.20810876  0.04443296
   0.19442450  0.31997588  0.04311396
   0.19142608  0.03863529  0.14839665
   0.06695678  0.15241080  0.15026434
   0.31160394  0.19899120  0.03953885
   0.44166225  0.30407877  0.02643972
   0.44087335  0.03867746  0.14823358
   0.31638858  0.15170885  0.14740475
   0.57054393  0.19714818  0.03864089
   0.69005369  0.31662812  0.04029432
   0.69061726  0.03882835  0.14849198
   0.56543021  0.15182589  0.14687728
   0.81618369  0.20533790  0.04312491
   0.94152380  0.31818893  0.04073105
   0.94127728  0.03956753  0.14978282
   0.81559116  0.15237530  0.14946430
   0.06617859  0.53831905  0.03138408
   0.19071055  0.65298780  0.02846743
   0.19509391  0.38615569  0.14844569
   0.06660933  0.49401366  0.13961771
   0.31774024  0.54198358  0.02500112
   0.44099923  0.65414728  0.02374926
   0.44085783  0.36363373  0.13121473
   0.33073459  0.48940259  0.13308824
   0.56434053  0.54100498  0.02647572
   0.69098280  0.65235226  0.03084271
   0.68897870  0.38015992  0.14518400
   0.55614644  0.48575525  0.13304560
   0.81528970  0.53776075  0.03252621
   0.94034051  0.65129068  0.03248530
   0.94167228  0.38018088  0.14477048
   0.81513521  0.49149479  0.14029944
   0.06530195  0.87260443  0.04071589
   0.18971361  0.98554144  0.04183019
   0.19174479  0.69579896  0.13678832
   0.06673923  0.80858265  0.14473618
   0.31550974  0.87390633  0.03959882
   0.44087892  0.98581094  0.04183707
   0.43699728  0.70070641  0.13399153
   0.31311744  0.81226398  0.14454428
   0.56506553  0.87279761  0.04103492
   0.69048338  0.98482935  0.04229903
   0.69013068  0.69716502  0.13884871
   0.56522982  0.80938080  0.14625453
   0.81645284  0.87319121  0.04027276
   0.94141914  0.98619778  0.04336324
   0.94015416  0.69806938  0.14014321
   0.81490558  0.81042356  0.14432865
   0.43707035  0.56663502  0.20120640
   0.33760801  0.61071877  0.27413188
   0.42064853  0.58742127  0.32624041
   0.48815184  0.50642526  0.28653861
   0.26240414  0.65213143  0.29158473
Direct configuration=    12
   0.06842940  0.20818629  0.04442264
   0.19442802  0.32004684  0.04308598
   0.19137418  0.03866620  0.14834004
   0.06690104  0.15243355  0.15022344
   0.31156359  0.19901327  0.03950720
   0.44162746  0.30407049  0.02638582
   0.44082767  0.03873661  0.14818405
   0.31633405  0.15175668  0.14735697
   0.57053163  0.19717753  0.03860830
   0.69001879  0.31673556  0.04034296
   0.69058923  0.03885910  0.14845020
   0.56539144  0.15186882  0.14681178
   0.81614042  0.20541803  0.04310542
   0.94146969  0.31828729  0.04075289
   0.94122087  0.03961384  0.14974119
   0.81554369  0.15243960  0.14943134
   0.06614301  0.53835842  0.03148442
   0.19070842  0.65299176  0.02859332
   0.19502790  0.38614415  0.14853890
   0.06657063  0.49397048  0.13968850
   0.31771683  0.54201467  0.02502056
   0.44094072  0.65422316  0.02367954
   0.44079089  0.36349722  0.13116207
   0.33054924  0.48928820  0.13273724
   0.56429367  0.54107793  0.02640483
   0.69093084  0.65240711  0.03092624
   0.68900520  0.38015555  0.14524171
   0.55628433  0.48569258  0.13264642
   0.81524998  0.53781861  0.03259162
   0.94030245  0.65132947  0.03257385
   0.94160523  0.38018182  0.14483215
   0.81510698  0.49149386  0.14034441
   0.06523561  0.87267600  0.04066841
   0.18965344  0.98563105  0.04178739
   0.19169112  0.69600032  0.13688175
   0.06667710  0.80876525  0.14472120
   0.31545694  0.87398436  0.03956260
   0.44084652  0.98586052  0.04180555
   0.43679183  0.70114641  0.13360950
   0.31297237  0.81256877  0.14457499
   0.56502468  0.87283590  0.04100136
   0.69043420  0.98488541  0.04227499
   0.69007989  0.69722649  0.13892559
   0.56520109  0.80953203  0.14626421
   0.81640473  0.87319095  0.04025908
   0.94134214  0.98624614  0.04332369
   0.94012731  0.69818228  0.14019711
   0.81485499  0.81051940  0.14434184
   0.43743658  0.56571468  0.20070193
   0.34073782  0.60943337  0.27453770
   0.42107489  0.58886900  0.32682185
   0.48735621  0.50610767  0.28584433
   0.26372703  0.65169326  0.29235012
Direct configuration=    13
   0.06839358  0.20823026  0.04441679
   0.19443002  0.32008709  0.04307011
   0.19134474  0.03868373  0.14830794
   0.06686944  0.15244646  0.15020025
   0.31154071  0.19902578  0.03948925
   0.44160772  0.30406579  0.02635526
   0.44080176  0.03877016  0.14815595
   0.31630312  0.15178381  0.14732988
   0.57052466  0.19719418  0.03858981
   0.68999899  0.31679650  0.04037055
   0.69057333  0.03887654  0.14842650
   0.56536946  0.15189317  0.14677463
   0.81611588  0.20546348  0.04309437
   0.94143901  0.31834306  0.04076527
   0.94118888  0.03964011  0.14971758
   0.81551677  0.15247606  0.14941265
   0.06612284  0.53838075  0.03154133
   0.19070720  0.65299401  0.02866472
   0.19499047  0.38613761  0.14859177
   0.06654869  0.49394599  0.13972864
   0.31770355  0.54203230  0.02503158
   0.44090754  0.65426620  0.02363999
   0.44075292  0.36341981  0.13113221
   0.33044412  0.48922333  0.13253818
   0.56426710  0.54111930  0.02636462
   0.69090138  0.65243822  0.03097361
   0.68902023  0.38015307  0.14527444
   0.55636252  0.48565704  0.13242004
   0.81522746  0.53785143  0.03262871
   0.94028086  0.65135147  0.03262407
   0.94156720  0.38018235  0.14486712
   0.81509098  0.49149333  0.14036992
   0.06519799  0.87271659  0.04064148
   0.18961932  0.98568187  0.04176312
   0.19166069  0.69611452  0.13693474
   0.06664187  0.80886880  0.14471271
   0.31542699  0.87402861  0.03954206
   0.44082815  0.98588864  0.04178768
   0.43667531  0.70139595  0.13339284
   0.31289010  0.81274162  0.14459241
   0.56500152  0.87285761  0.04098233
   0.69040631  0.98491720  0.04226136
   0.69005108  0.69726136  0.13896919
   0.56518480  0.80961779  0.14626971
   0.81637745  0.87319080  0.04025133
   0.94129847  0.98627357  0.04330126
   0.94011209  0.69824631  0.14022768
   0.81482631  0.81057376  0.14434931
   0.43764428  0.56519274  0.20041584
   0.34251281  0.60870439  0.27476785
   0.42131669  0.58969004  0.32715160
   0.48690499  0.50592756  0.28545059
   0.26447727  0.65144476  0.29278419
Direct configuration=    14
   0.06834220  0.20831960  0.04440300
   0.19443563  0.32016236  0.04306762
   0.19128975  0.03872140  0.14824983
   0.06681793  0.15247439  0.15015801
   0.31148544  0.19904042  0.03944901
   0.44156711  0.30402646  0.02629565
   0.44075558  0.03882481  0.14810395
   0.31624581  0.15183775  0.14727977
   0.57052035  0.19722344  0.03855242
   0.68995680  0.31689431  0.04041292
   0.69053494  0.03891069  0.14838742
   0.56533180  0.15193353  0.14670860
   0.81607095  0.20556251  0.04307190
   0.94138583  0.31844360  0.04079713
   0.94112493  0.03968862  0.14967447
   0.81546827  0.15253375  0.14937530
   0.06609227  0.53842601  0.03164033
   0.19070236  0.65299961  0.02878181
   0.19494050  0.38615913  0.14866526
   0.06649291  0.49391419  0.13981438
   0.31762743  0.54206950  0.02495928
   0.44083802  0.65435887  0.02345949
   0.44071329  0.36325809  0.13103312
   0.33007416  0.48891533  0.13198183
   0.56425955  0.54121069  0.02619476
   0.69084617  0.65249578  0.03105506
   0.68896437  0.38020807  0.14533471
   0.55669236  0.48535173  0.13185336
   0.81518483  0.53791674  0.03268907
   0.94024409  0.65139469  0.03271603
   0.94149878  0.38017608  0.14492381
   0.81508346  0.49151162  0.14042189
   0.06512680  0.87279378  0.04059232
   0.18955202  0.98577492  0.04171057
   0.19161671  0.69630490  0.13706777
   0.06657108  0.80905919  0.14469311
   0.31535593  0.87413179  0.03950333
   0.44079039  0.98594736  0.04175089
   0.43658001  0.70169145  0.13301817
   0.31271080  0.81303892  0.14462530
   0.56498186  0.87290729  0.04096620
   0.69036344  0.98496612  0.04222425
   0.68998888  0.69732107  0.13905628
   0.56512615  0.80979091  0.14625337
   0.81631931  0.87320190  0.04024023
   0.94121950  0.98632442  0.04325856
   0.94008432  0.69836565  0.14029017
   0.81477022  0.81067446  0.14435761
   0.43798215  0.56445338  0.20081703
   0.34471802  0.60860581  0.27622068
   0.42227459  0.58976048  0.32640934
   0.48559011  0.50672487  0.28528280
   0.26692243  0.65031112  0.29309725
Direct configuration=    15
   0.06831120  0.20837348  0.04439467
   0.19443902  0.32020776  0.04306611
   0.19125659  0.03874412  0.14821479
   0.06678687  0.15249124  0.15013253
   0.31145211  0.19904925  0.03942474
   0.44154261  0.30400275  0.02625970
   0.44072773  0.03885777  0.14807259
   0.31621125  0.15187028  0.14724956
   0.57051775  0.19724109  0.03852987
   0.68993136  0.31695331  0.04043848
   0.69051179  0.03893129  0.14836385
   0.56530909  0.15195787  0.14666878
   0.81604386  0.20562224  0.04305835
   0.94135375  0.31850424  0.04081634
   0.94108636  0.03971787  0.14964847
   0.81543901  0.15256854  0.14935278
   0.06607383  0.53845330  0.03170005
   0.19069944  0.65300298  0.02885243
   0.19491037  0.38617212  0.14870958
   0.06645926  0.49389501  0.13986610
   0.31758152  0.54209193  0.02491567
   0.44079610  0.65441476  0.02335062
   0.44068939  0.36316055  0.13097336
   0.32985103  0.48872957  0.13164628
   0.56425500  0.54126580  0.02609232
   0.69081288  0.65253050  0.03110419
   0.68893068  0.38024123  0.14537106
   0.55689128  0.48516760  0.13151159
   0.81515913  0.53795614  0.03272548
   0.94022192  0.65142076  0.03277149
   0.94145752  0.38017230  0.14495801